ESCALE ; pCOHP file generated by LOBSTER. Energy is shifted such that the Fermi level lies at 0 eV.
         2          2        301  -1.24088e+01   2.64139e+00  -2.37533e+00 
Average
No.1:Mo31->Au45(2.9935218898025431)
-10.03344   0.00000  -0.88271   0.00000  -0.88271   0.00000  -0.91847   0.00000  -0.91847
 -9.98328   0.00000  -0.88271   0.00000  -0.88271   0.00000  -0.91847   0.00000  -0.91847
 -9.93311   0.00000  -0.88271   0.00000  -0.88271   0.00000  -0.91847   0.00000  -0.91847
 -9.88294   0.00000  -0.88271   0.00000  -0.88271   0.00000  -0.91847   0.00000  -0.91847
 -9.83278   0.00000  -0.88271   0.00000  -0.88271   0.00000  -0.91847   0.00000  -0.91847
 -9.78261   0.00000  -0.88271   0.00000  -0.88271   0.00000  -0.91847   0.00000  -0.91847
 -9.73244  -0.00000  -0.88271  -0.00000  -0.88271  -0.00000  -0.91847  -0.00000  -0.91847
 -9.68227   0.00000  -0.88271   0.00000  -0.88271  -0.00000  -0.91847  -0.00000  -0.91847
 -9.63211   0.00000  -0.88271   0.00000  -0.88271   0.00000  -0.91847   0.00000  -0.91847
 -9.58194   0.00000  -0.88271   0.00000  -0.88271   0.00000  -0.91847   0.00000  -0.91847
 -9.53177   0.00000  -0.88271   0.00000  -0.88271   0.00000  -0.91847   0.00000  -0.91847
 -9.48161   0.00000  -0.88271   0.00000  -0.88271   0.00000  -0.91847   0.00000  -0.91847
 -9.43144   0.00000  -0.88271   0.00000  -0.88271   0.00000  -0.91847   0.00000  -0.91847
 -9.38127   0.00000  -0.88271   0.00000  -0.88271   0.00000  -0.91847   0.00000  -0.91847
 -9.33110   0.00000  -0.88271   0.00000  -0.88271   0.00000  -0.91847   0.00000  -0.91847
 -9.28094   0.00000  -0.88271   0.00000  -0.88271   0.00000  -0.91847   0.00000  -0.91847
 -9.23077   0.00000  -0.88271   0.00000  -0.88271   0.00000  -0.91847   0.00000  -0.91847
 -9.18060   0.00000  -0.88271   0.00000  -0.88271   0.00000  -0.91847   0.00000  -0.91847
 -9.13043   0.00000  -0.88271   0.00000  -0.88271   0.00000  -0.91847   0.00000  -0.91847
 -9.08027   0.00000  -0.88271   0.00000  -0.88271   0.00000  -0.91847   0.00000  -0.91847
 -9.03010   0.00000  -0.88271   0.00000  -0.88271   0.00000  -0.91847   0.00000  -0.91847
 -8.97993   0.00000  -0.88271   0.00000  -0.88271   0.00000  -0.91847   0.00000  -0.91847
 -8.92977   0.00000  -0.88271   0.00000  -0.88271   0.00000  -0.91847   0.00000  -0.91847
 -8.87960   0.00000  -0.88271   0.00000  -0.88271   0.00000  -0.91847   0.00000  -0.91847
 -8.82943   0.00000  -0.88271   0.00000  -0.88271   0.00000  -0.91847   0.00000  -0.91847
 -8.77926   0.00000  -0.88271   0.00000  -0.88271   0.00000  -0.91847   0.00000  -0.91847
 -8.72910   0.00000  -0.88271   0.00000  -0.88271   0.00000  -0.91847   0.00000  -0.91847
 -8.67893  -0.00000  -0.88271  -0.00000  -0.88271   0.00000  -0.91847   0.00000  -0.91847
 -8.62876  -0.00000  -0.88271  -0.00000  -0.88271  -0.00000  -0.91847  -0.00000  -0.91847
 -8.57860  -0.00000  -0.88271  -0.00000  -0.88271   0.00000  -0.91847   0.00000  -0.91847
 -8.52843   0.00000  -0.88271   0.00000  -0.88271   0.00000  -0.91847   0.00000  -0.91847
 -8.47826   0.00000  -0.88271   0.00000  -0.88271   0.00000  -0.91847   0.00000  -0.91847
 -8.42809   0.00000  -0.88271   0.00000  -0.88271   0.00000  -0.91847   0.00000  -0.91847
 -8.37793   0.00000  -0.88271   0.00000  -0.88271   0.00000  -0.91847   0.00000  -0.91847
 -8.32776   0.00000  -0.88271   0.00000  -0.88271   0.00000  -0.91847   0.00000  -0.91847
 -8.27759   0.00000  -0.88271   0.00000  -0.88271   0.00000  -0.91847   0.00000  -0.91847
 -8.22742   0.00000  -0.88271   0.00000  -0.88271   0.00000  -0.91847   0.00000  -0.91847
 -8.17726   0.00000  -0.88271   0.00000  -0.88271   0.00000  -0.91847   0.00000  -0.91847
 -8.12709   0.00000  -0.88271   0.00000  -0.88271   0.00000  -0.91847   0.00000  -0.91847
 -8.07692   0.00000  -0.88271   0.00000  -0.88271   0.00000  -0.91847   0.00000  -0.91847
 -8.02676   0.00002  -0.88271   0.00002  -0.88271   0.00002  -0.91847   0.00002  -0.91847
 -7.97659   0.00007  -0.88270   0.00007  -0.88270   0.00007  -0.91846   0.00007  -0.91846
 -7.92642   0.00026  -0.88269   0.00026  -0.88269   0.00025  -0.91845   0.00025  -0.91845
 -7.87625   0.00085  -0.88265   0.00085  -0.88265   0.00084  -0.91841   0.00084  -0.91841
 -7.82609   0.00245  -0.88252   0.00245  -0.88252   0.00247  -0.91828   0.00247  -0.91828
 -7.77592   0.00625  -0.88221   0.00625  -0.88221   0.00643  -0.91796   0.00643  -0.91796
 -7.72575   0.01414  -0.88150   0.01414  -0.88150   0.01478  -0.91722   0.01478  -0.91722
 -7.67559   0.02828  -0.88008   0.02828  -0.88008   0.02999  -0.91572   0.02999  -0.91572
 -7.62542   0.05004  -0.87757   0.05004  -0.87757   0.05373  -0.91302   0.05373  -0.91302
 -7.57525   0.07830  -0.87364   0.07830  -0.87364   0.08502  -0.90876   0.08502  -0.90876
 -7.52508   0.10835  -0.86821   0.10835  -0.86821   0.11884  -0.90279   0.11884  -0.90279
 -7.47492   0.13267  -0.86155   0.13267  -0.86155   0.14687  -0.89543   0.14687  -0.89543
 -7.42475   0.14384  -0.85434   0.14384  -0.85434   0.16072  -0.88736   0.16072  -0.88736
 -7.37458   0.13832  -0.84740   0.13832  -0.84740   0.15626  -0.87952   0.15626  -0.87952
 -7.32441   0.11836  -0.84146   0.11836  -0.84146   0.13595  -0.87270   0.13595  -0.87270
 -7.27425   0.09056  -0.83692   0.09056  -0.83692   0.10733  -0.86732   0.10733  -0.86732
 -7.22408   0.06201  -0.83381   0.06201  -0.83381   0.07860  -0.86338   0.07860  -0.86338
 -7.17391   0.03658  -0.83197   0.03658  -0.83197   0.05421  -0.86066   0.05421  -0.86066
 -7.12375   0.01346  -0.83130   0.01346  -0.83130   0.03306  -0.85900   0.03306  -0.85900
 -7.07358  -0.01121  -0.83186  -0.01121  -0.83186   0.01013  -0.85849   0.01013  -0.85849
 -7.02341  -0.04110  -0.83392  -0.04110  -0.83392  -0.01963  -0.85947  -0.01963  -0.85947
 -6.97324  -0.07640  -0.83775  -0.07640  -0.83775  -0.05745  -0.86236  -0.05745  -0.86236
 -6.92308  -0.11266  -0.84340  -0.11266  -0.84340  -0.09895  -0.86732  -0.09895  -0.86732
 -6.87291  -0.14243  -0.85055  -0.14243  -0.85055  -0.13557  -0.87412  -0.13557  -0.87412
 -6.82274  -0.15880  -0.85852  -0.15880  -0.85852  -0.15863  -0.88208  -0.15863  -0.88208
 -6.77258  -0.15886  -0.86649  -0.15886  -0.86649  -0.16355  -0.89028  -0.16355  -0.89028
 -6.72241  -0.14505  -0.87376  -0.14505  -0.87376  -0.15198  -0.89791  -0.15198  -0.89791
 -6.67224  -0.12391  -0.87998  -0.12391  -0.87998  -0.13064  -0.90446  -0.13064  -0.90446
 -6.62207  -0.10321  -0.88516  -0.10321  -0.88516  -0.10808  -0.90989  -0.10808  -0.90989
 -6.57191  -0.08901  -0.88962  -0.08901  -0.88962  -0.09119  -0.91446  -0.09119  -0.91446
 -6.52174  -0.08425  -0.89385  -0.08425  -0.89385  -0.08349  -0.91865  -0.08349  -0.91865
 -6.47157  -0.08875  -0.89830  -0.08875  -0.89830  -0.08528  -0.92293  -0.08528  -0.92293
 -6.42140  -0.10030  -0.90333  -0.10030  -0.90333  -0.09483  -0.92768  -0.09483  -0.92768
 -6.37124  -0.11578  -0.90914  -0.11578  -0.90914  -0.10947  -0.93318  -0.10947  -0.93318
 -6.32107  -0.13188  -0.91576  -0.13188  -0.91576  -0.12615  -0.93950  -0.12615  -0.93950
 -6.27090  -0.14571  -0.92307  -0.14571  -0.92307  -0.14186  -0.94662  -0.14186  -0.94662
 -6.22074  -0.15528  -0.93086  -0.15528  -0.93086  -0.15411  -0.95435  -0.15411  -0.95435
 -6.17057  -0.15968  -0.93887  -0.15968  -0.93887  -0.16130  -0.96244  -0.16130  -0.96244
 -6.12040  -0.15860  -0.94682  -0.15860  -0.94682  -0.16239  -0.97059  -0.16239  -0.97059
 -6.07023  -0.15129  -0.95441  -0.15129  -0.95441  -0.15614  -0.97842  -0.15614  -0.97842
 -6.02007  -0.13601  -0.96124  -0.13601  -0.96124  -0.14066  -0.98548  -0.14066  -0.98548
 -5.96990  -0.11076  -0.96679  -0.11076  -0.96679  -0.11423  -0.99121  -0.11423  -0.99121
 -5.91973  -0.07512  -0.97056  -0.07512  -0.97056  -0.07696  -0.99507  -0.07696  -0.99507
 -5.86957  -0.03169  -0.97215  -0.03169  -0.97215  -0.03209  -0.99668  -0.03209  -0.99668
 -5.81940   0.01382  -0.97146   0.01382  -0.97146   0.01428  -0.99597   0.01428  -0.99597
 -5.76923   0.05431  -0.96873   0.05431  -0.96873   0.05495  -0.99321   0.05495  -0.99321
 -5.71906   0.08364  -0.96454   0.08364  -0.96454   0.08404  -0.98899   0.08404  -0.98899
 -5.66890   0.09870  -0.95959   0.09870  -0.95959   0.09882  -0.98404   0.09882  -0.98404
 -5.61873   0.10018  -0.95456   0.10018  -0.95456   0.10032  -0.97900   0.10032  -0.97900
 -5.56856   0.09200  -0.94994   0.09200  -0.94994   0.09252  -0.97436   0.09252  -0.97436
 -5.51839   0.07951  -0.94596   0.07951  -0.94596   0.08061  -0.97032   0.08061  -0.97032
 -5.46823   0.06738  -0.94258   0.06738  -0.94258   0.06894  -0.96686   0.06894  -0.96686
 -5.41806   0.05816  -0.93966   0.05816  -0.93966   0.05978  -0.96386   0.05978  -0.96386
 -5.36789   0.05202  -0.93705   0.05202  -0.93705   0.05312  -0.96119   0.05312  -0.96119
 -5.31773   0.04760  -0.93466   0.04760  -0.93466   0.04762  -0.95881   0.04762  -0.95881
 -5.26756   0.04318  -0.93249   0.04318  -0.93249   0.04177  -0.95671   0.04177  -0.95671
 -5.21739   0.03766  -0.93060   0.03766  -0.93060   0.03479  -0.95496   0.03479  -0.95496
 -5.16722   0.03080  -0.92906   0.03080  -0.92906   0.02679  -0.95362   0.02679  -0.95362
 -5.11706   0.02294  -0.92791   0.02294  -0.92791   0.01838  -0.95270   0.01838  -0.95270
 -5.06689   0.01442  -0.92718   0.01442  -0.92718   0.00996  -0.95220   0.00996  -0.95220
 -5.01672   0.00523  -0.92692   0.00523  -0.92692   0.00143  -0.95213   0.00143  -0.95213
 -4.96656  -0.00467  -0.92716  -0.00467  -0.92716  -0.00744  -0.95250  -0.00744  -0.95250
 -4.91639  -0.01482  -0.92790  -0.01482  -0.92790  -0.01638  -0.95332  -0.01638  -0.95332
 -4.86622  -0.02395  -0.92910  -0.02395  -0.92910  -0.02430  -0.95454  -0.02430  -0.95454
 -4.81605  -0.03040  -0.93063  -0.03040  -0.93063  -0.02982  -0.95604  -0.02982  -0.95604
 -4.76589  -0.03307  -0.93229  -0.03307  -0.93229  -0.03217  -0.95765  -0.03217  -0.95765
 -4.71572  -0.03196  -0.93389  -0.03196  -0.93389  -0.03188  -0.95925  -0.03188  -0.95925
 -4.66555  -0.02825  -0.93531  -0.02825  -0.93531  -0.03068  -0.96079  -0.03068  -0.96079
 -4.61538  -0.02379  -0.93650  -0.02379  -0.93650  -0.03078  -0.96233  -0.03078  -0.96233
 -4.56522  -0.02033  -0.93752  -0.02033  -0.93752  -0.03387  -0.96403  -0.03387  -0.96403
 -4.51505  -0.01903  -0.93847  -0.01903  -0.93847  -0.04038  -0.96606  -0.04038  -0.96606
 -4.46488  -0.02008  -0.93948  -0.02008  -0.93948  -0.04910  -0.96852  -0.04910  -0.96852
 -4.41472  -0.02266  -0.94062  -0.02266  -0.94062  -0.05751  -0.97141  -0.05751  -0.97141
 -4.36455  -0.02542  -0.94189  -0.02542  -0.94189  -0.06278  -0.97456  -0.06278  -0.97456
 -4.31438  -0.02720  -0.94326  -0.02720  -0.94326  -0.06306  -0.97772  -0.06306  -0.97772
 -4.26421  -0.02756  -0.94464  -0.02756  -0.94464  -0.05844  -0.98065  -0.05844  -0.98065
 -4.21405  -0.02683  -0.94599  -0.02683  -0.94599  -0.05064  -0.98319  -0.05064  -0.98319
 -4.16388  -0.02555  -0.94727  -0.02555  -0.94727  -0.04194  -0.98530  -0.04194  -0.98530
 -4.11371  -0.02386  -0.94846  -0.02386  -0.94846  -0.03385  -0.98700  -0.03385  -0.98700
 -4.06355  -0.02135  -0.94954  -0.02135  -0.94954  -0.02657  -0.98833  -0.02657  -0.98833
 -4.01338  -0.01738  -0.95041  -0.01738  -0.95041  -0.01941  -0.98930  -0.01941  -0.98930
 -3.96321  -0.01169  -0.95099  -0.01169  -0.95099  -0.01170  -0.98989  -0.01170  -0.98989
 -3.91304  -0.00481  -0.95124  -0.00481  -0.95124  -0.00353  -0.99007  -0.00353  -0.99007
 -3.86288   0.00212  -0.95113   0.00212  -0.95113   0.00429  -0.98985   0.00429  -0.98985
 -3.81271   0.00796  -0.95073   0.00796  -0.95073   0.01080  -0.98931   0.01080  -0.98931
 -3.76254   0.01222  -0.95012   0.01222  -0.95012   0.01558  -0.98853   0.01558  -0.98853
 -3.71237   0.01523  -0.94935   0.01523  -0.94935   0.01897  -0.98758   0.01897  -0.98758
 -3.66221   0.01781  -0.94846   0.01781  -0.94846   0.02173  -0.98649   0.02173  -0.98649
 -3.61204   0.02066  -0.94742   0.02066  -0.94742   0.02447  -0.98526   0.02447  -0.98526
 -3.56187   0.02394  -0.94622   0.02394  -0.94622   0.02736  -0.98389   0.02736  -0.98389
 -3.51171   0.02735  -0.94485   0.02735  -0.94485   0.03016  -0.98237   0.03016  -0.98237
 -3.46154   0.03041  -0.94332   0.03041  -0.94332   0.03261  -0.98074   0.03261  -0.98074
 -3.41137   0.03285  -0.94168   0.03285  -0.94168   0.03455  -0.97900   0.03455  -0.97900
 -3.36120   0.03458  -0.93994   0.03458  -0.93994   0.03596  -0.97720   0.03596  -0.97720
 -3.31104   0.03559  -0.93816   0.03559  -0.93816   0.03675  -0.97536   0.03675  -0.97536
 -3.26087   0.03577  -0.93636   0.03577  -0.93636   0.03669  -0.97351   0.03669  -0.97351
 -3.21070   0.03493  -0.93461   0.03493  -0.93461   0.03551  -0.97173   0.03551  -0.97173
 -3.16054   0.03302  -0.93295   0.03302  -0.93295   0.03321  -0.97007   0.03321  -0.97007
 -3.11037   0.03035  -0.93143   0.03035  -0.93143   0.03023  -0.96855   0.03023  -0.96855
 -3.06020   0.02748  -0.93005   0.02748  -0.93005   0.02727  -0.96718   0.02727  -0.96718
 -3.01003   0.02491  -0.92880   0.02491  -0.92880   0.02489  -0.96593   0.02489  -0.96593
 -2.95987   0.02279  -0.92766   0.02279  -0.92766   0.02320  -0.96477   0.02320  -0.96477
 -2.90970   0.02083  -0.92661   0.02083  -0.92661   0.02176  -0.96368   0.02176  -0.96368
 -2.85953   0.01856  -0.92568   0.01856  -0.92568   0.01994  -0.96268   0.01994  -0.96268
 -2.80936   0.01568  -0.92489   0.01568  -0.92489   0.01729  -0.96181   0.01729  -0.96181
 -2.75920   0.01229  -0.92428   0.01229  -0.92428   0.01389  -0.96111   0.01389  -0.96111
 -2.70903   0.00888  -0.92383   0.00888  -0.92383   0.01028  -0.96060   0.01028  -0.96060
 -2.65886   0.00603  -0.92353   0.00603  -0.92353   0.00713  -0.96024   0.00713  -0.96024
 -2.60870   0.00416  -0.92332   0.00416  -0.92332   0.00497  -0.95999   0.00497  -0.95999
 -2.55853   0.00329  -0.92316   0.00329  -0.92316   0.00385  -0.95980   0.00385  -0.95980
 -2.50836   0.00301  -0.92301   0.00301  -0.92301   0.00341  -0.95963   0.00341  -0.95963
 -2.45819   0.00261  -0.92287   0.00261  -0.92287   0.00296  -0.95948   0.00296  -0.95948
 -2.40803   0.00138  -0.92281   0.00138  -0.92281   0.00187  -0.95938   0.00187  -0.95938
 -2.35786  -0.00092  -0.92285  -0.00092  -0.92285  -0.00005  -0.95939  -0.00005  -0.95939
 -2.30769  -0.00381  -0.92304  -0.00381  -0.92304  -0.00234  -0.95950  -0.00234  -0.95950
 -2.25753  -0.00619  -0.92335  -0.00619  -0.92335  -0.00406  -0.95971  -0.00406  -0.95971
 -2.20736  -0.00688  -0.92370  -0.00688  -0.92370  -0.00425  -0.95992  -0.00425  -0.95992
 -2.15719  -0.00528  -0.92396  -0.00528  -0.92396  -0.00253  -0.96005  -0.00253  -0.96005
 -2.10702  -0.00175  -0.92405  -0.00175  -0.92405   0.00064  -0.96002   0.00064  -0.96002
 -2.05686   0.00243  -0.92393   0.00243  -0.92393   0.00397  -0.95982   0.00397  -0.95982
 -2.00669   0.00534  -0.92366   0.00534  -0.92366   0.00576  -0.95953   0.00576  -0.95953
 -1.95652   0.00498  -0.92341   0.00498  -0.92341   0.00434  -0.95931   0.00434  -0.95931
 -1.90635  -0.00016  -0.92342  -0.00016  -0.92342  -0.00136  -0.95938  -0.00136  -0.95938
 -1.85619  -0.01054  -0.92395  -0.01054  -0.92395  -0.01143  -0.95995  -0.01143  -0.95995
 -1.80602  -0.02527  -0.92522  -0.02527  -0.92522  -0.02483  -0.96120  -0.02483  -0.96120
 -1.75585  -0.04197  -0.92732  -0.04197  -0.92732  -0.03937  -0.96317  -0.03937  -0.96317
 -1.70569  -0.05724  -0.93019  -0.05724  -0.93019  -0.05215  -0.96579  -0.05215  -0.96579
 -1.65552  -0.06745  -0.93358  -0.06745  -0.93358  -0.06017  -0.96881  -0.06017  -0.96881
 -1.60535  -0.07000  -0.93709  -0.07000  -0.93709  -0.06130  -0.97188  -0.06130  -0.97188
 -1.55518  -0.06442  -0.94032  -0.06442  -0.94032  -0.05518  -0.97465  -0.05518  -0.97465
 -1.50502  -0.05259  -0.94296  -0.05259  -0.94296  -0.04355  -0.97684  -0.04355  -0.97684
 -1.45485  -0.03791  -0.94486  -0.03791  -0.94486  -0.02956  -0.97832  -0.02956  -0.97832
 -1.40468  -0.02372  -0.94605  -0.02372  -0.94605  -0.01644  -0.97914  -0.01644  -0.97914
 -1.35452  -0.01196  -0.94665  -0.01196  -0.94665  -0.00612  -0.97945  -0.00612  -0.97945
 -1.30435  -0.00286  -0.94679  -0.00286  -0.94679   0.00116  -0.97939   0.00116  -0.97939
 -1.25418   0.00429  -0.94658   0.00429  -0.94658   0.00626  -0.97908   0.00626  -0.97908
 -1.20401   0.01007  -0.94607   0.01007  -0.94607   0.01008  -0.97857   0.01008  -0.97857
 -1.15385   0.01434  -0.94535   0.01434  -0.94535   0.01284  -0.97793   0.01284  -0.97793
 -1.10368   0.01651  -0.94453   0.01651  -0.94453   0.01418  -0.97722   0.01418  -0.97722
 -1.05351   0.01628  -0.94371   0.01628  -0.94371   0.01381  -0.97653   0.01381  -0.97653
 -1.00334   0.01407  -0.94300   0.01407  -0.94300   0.01198  -0.97592   0.01198  -0.97592
 -0.95318   0.01094  -0.94245   0.01094  -0.94245   0.00951  -0.97545   0.00951  -0.97545
 -0.90301   0.00797  -0.94205   0.00797  -0.94205   0.00732  -0.97508   0.00732  -0.97508
 -0.85284   0.00578  -0.94176   0.00578  -0.94176   0.00601  -0.97478   0.00601  -0.97478
 -0.80268   0.00439  -0.94154   0.00439  -0.94154   0.00571  -0.97449   0.00571  -0.97449
 -0.75251   0.00334  -0.94138   0.00334  -0.94138   0.00610  -0.97419   0.00610  -0.97419
 -0.70234   0.00201  -0.94128   0.00201  -0.94128   0.00653  -0.97386   0.00653  -0.97386
 -0.65217  -0.00013  -0.94128  -0.00013  -0.94128   0.00625  -0.97355   0.00625  -0.97355
 -0.60201  -0.00322  -0.94144  -0.00322  -0.94144   0.00466  -0.97331   0.00466  -0.97331
 -0.55184  -0.00693  -0.94179  -0.00693  -0.94179   0.00165  -0.97323   0.00165  -0.97323
 -0.50167  -0.01048  -0.94232  -0.01048  -0.94232  -0.00229  -0.97334  -0.00229  -0.97334
 -0.45151  -0.01304  -0.94297  -0.01304  -0.94297  -0.00621  -0.97366  -0.00621  -0.97366
 -0.40134  -0.01391  -0.94367  -0.01391  -0.94367  -0.00903  -0.97411  -0.00903  -0.97411
 -0.35117  -0.01259  -0.94430  -0.01259  -0.94430  -0.00975  -0.97460  -0.00975  -0.97460
 -0.30100  -0.00865  -0.94473  -0.00865  -0.94473  -0.00751  -0.97497  -0.00751  -0.97497
 -0.25084  -0.00167  -0.94482  -0.00167  -0.94482  -0.00169  -0.97506  -0.00169  -0.97506
 -0.20067   0.00836  -0.94440   0.00836  -0.94440   0.00775  -0.97467   0.00775  -0.97467
 -0.15050   0.02058  -0.94337   0.02058  -0.94337   0.01984  -0.97368   0.01984  -0.97368
 -0.10033   0.03306  -0.94171   0.03306  -0.94171   0.03247  -0.97205   0.03247  -0.97205
 -0.05017   0.04335  -0.93953   0.04335  -0.93953   0.04298  -0.96989   0.04298  -0.96989
 -0.00000   0.04956  -0.93705   0.04956  -0.93705   0.04934  -0.96742   0.04934  -0.96742
  0.05017   0.05144  -0.93447   0.05144  -0.93447   0.05119  -0.96485   0.05119  -0.96485
  0.10033   0.05073  -0.93192   0.05073  -0.93192   0.05026  -0.96233   0.05026  -0.96233
  0.15050   0.05066  -0.92938   0.05066  -0.92938   0.04981  -0.95983   0.04981  -0.95983
  0.20067   0.05463  -0.92664   0.05463  -0.92664   0.05331  -0.95715   0.05331  -0.95715
  0.25084   0.06471  -0.92339   0.06471  -0.92339   0.06292  -0.95400   0.06292  -0.95400
  0.30100   0.08058  -0.91935   0.08058  -0.91935   0.07841  -0.95006   0.07841  -0.95006
  0.35117   0.09946  -0.91436   0.09946  -0.91436   0.09711  -0.94519   0.09711  -0.94519
  0.40134   0.11733  -0.90847   0.11733  -0.90847   0.11504  -0.93942   0.11504  -0.93942
  0.45151   0.13056  -0.90192   0.13056  -0.90192   0.12852  -0.93297   0.12852  -0.93297
  0.50167   0.13704  -0.89505   0.13704  -0.89505   0.13538  -0.92618   0.13538  -0.92618
  0.55184   0.13623  -0.88822   0.13623  -0.88822   0.13495  -0.91941   0.13495  -0.91941
  0.60201   0.12837  -0.88178   0.12837  -0.88178   0.12741  -0.91302   0.12741  -0.91302
  0.65217   0.11414  -0.87605   0.11414  -0.87605   0.11341  -0.90733   0.11341  -0.90733
  0.70234   0.09483  -0.87129   0.09483  -0.87129   0.09426  -0.90260   0.09426  -0.90260
  0.75251   0.07277  -0.86764   0.07277  -0.86764   0.07234  -0.89897   0.07234  -0.89897
  0.80268   0.05110  -0.86508   0.05110  -0.86508   0.05077  -0.89642   0.05077  -0.89642
  0.85284   0.03281  -0.86343   0.03281  -0.86343   0.03256  -0.89479   0.03256  -0.89479
  0.90301   0.01987  -0.86244   0.01987  -0.86244   0.01966  -0.89380   0.01966  -0.89380
  0.95318   0.01301  -0.86178   0.01301  -0.86178   0.01281  -0.89316   0.01281  -0.89316
  1.00334   0.01214  -0.86117   0.01214  -0.86117   0.01188  -0.89257   0.01188  -0.89257
  1.05351   0.01680  -0.86033   0.01680  -0.86033   0.01647  -0.89174   0.01647  -0.89174
  1.10368   0.02626  -0.85901   0.02626  -0.85901   0.02585  -0.89044   0.02585  -0.89044
  1.15385   0.03910  -0.85705   0.03910  -0.85705   0.03862  -0.88850   0.03862  -0.88850
  1.20401   0.05283  -0.85440   0.05283  -0.85440   0.05232  -0.88588   0.05232  -0.88588
  1.25418   0.06429  -0.85118   0.06429  -0.85118   0.06371  -0.88268   0.06371  -0.88268
  1.30435   0.07066  -0.84763   0.07066  -0.84763   0.06992  -0.87918   0.06992  -0.87918
  1.35452   0.07079  -0.84408   0.07079  -0.84408   0.06968  -0.87568   0.06968  -0.87568
  1.40468   0.06579  -0.84078   0.06579  -0.84078   0.06411  -0.87246   0.06411  -0.87246
  1.45485   0.05868  -0.83784   0.05868  -0.83784   0.05629  -0.86964   0.05629  -0.86964
  1.50502   0.05320  -0.83517   0.05320  -0.83517   0.05023  -0.86712   0.05023  -0.86712
  1.55518   0.05277  -0.83252   0.05277  -0.83252   0.04964  -0.86463   0.04964  -0.86463
  1.60535   0.05960  -0.82953   0.05960  -0.82953   0.05699  -0.86177   0.05699  -0.86177
  1.65552   0.07419  -0.82581   0.07419  -0.82581   0.07274  -0.85812   0.07274  -0.85812
  1.70569   0.09501  -0.82104   0.09501  -0.82104   0.09509  -0.85335   0.09509  -0.85335
  1.75585   0.11912  -0.81507   0.11912  -0.81507   0.12071  -0.84730   0.12071  -0.84730
  1.80602   0.14391  -0.80785   0.14391  -0.80785   0.14656  -0.83994   0.14656  -0.83994
  1.85619   0.16887  -0.79937   0.16887  -0.79937   0.17196  -0.83132   0.17196  -0.83132
  1.90635   0.19574  -0.78955   0.19574  -0.78955   0.19866  -0.82135   0.19866  -0.82135
  1.95652   0.22590  -0.77822   0.22590  -0.77822   0.22821  -0.80990   0.22821  -0.80990
  2.00669   0.25681  -0.76534   0.25681  -0.76534   0.25818  -0.79695   0.25818  -0.79695
  2.05686   0.28061  -0.75126   0.28061  -0.75126   0.28078  -0.78286   0.28078  -0.78286
  2.10702   0.28721  -0.73685   0.28721  -0.73685   0.28598  -0.76852   0.28598  -0.76852
  2.15719   0.27044  -0.72328   0.27044  -0.72328   0.26768  -0.75509   0.26768  -0.75509
  2.20736   0.23263  -0.71161   0.23263  -0.71161   0.22837  -0.74363   0.22837  -0.74363
  2.25753   0.18412  -0.70238   0.18412  -0.70238   0.17865  -0.73467   0.17865  -0.73467
  2.30769   0.13788  -0.69546   0.13788  -0.69546   0.13178  -0.72806   0.13178  -0.72806
  2.35786   0.10322  -0.69028   0.10322  -0.69028   0.09728  -0.72318   0.09728  -0.72318
  2.40803   0.08259  -0.68614   0.08259  -0.68614   0.07768  -0.71928   0.07768  -0.71928
  2.45819   0.07282  -0.68249   0.07282  -0.68249   0.06960  -0.71579   0.06960  -0.71579
  2.50836   0.06876  -0.67904   0.06876  -0.67904   0.06747  -0.71240   0.06747  -0.71240
  2.55853   0.06636  -0.67571   0.06636  -0.67571   0.06671  -0.70906   0.06671  -0.70906
  2.60870   0.06386  -0.67250   0.06386  -0.67250   0.06511  -0.70579   0.06511  -0.70579
  2.65886   0.06114  -0.66944   0.06114  -0.66944   0.06234  -0.70266   0.06234  -0.70266
  2.70903   0.05837  -0.66651   0.05837  -0.66651   0.05864  -0.69972   0.05864  -0.69972
  2.75920   0.05502  -0.66375   0.05502  -0.66375   0.05380  -0.69702   0.05380  -0.69702
  2.80936   0.04992  -0.66124   0.04992  -0.66124   0.04705  -0.69466   0.04705  -0.69466
  2.85953   0.04231  -0.65912   0.04231  -0.65912   0.03798  -0.69276   0.03798  -0.69276
  2.90970   0.03303  -0.65746   0.03303  -0.65746   0.02768  -0.69137   0.02768  -0.69137
  2.95987   0.02490  -0.65622   0.02490  -0.65622   0.01907  -0.69041   0.01907  -0.69041
  3.01003   0.02182  -0.65512   0.02182  -0.65512   0.01599  -0.68961   0.01599  -0.68961
  3.06020   0.02713  -0.65376   0.02713  -0.65376   0.02167  -0.68852   0.02167  -0.68852
  3.11037   0.04231  -0.65164   0.04231  -0.65164   0.03748  -0.68664   0.03748  -0.68664
  3.16054   0.06640  -0.64831   0.06640  -0.64831   0.06237  -0.68351   0.06237  -0.68351
  3.21070   0.09602  -0.64349   0.09602  -0.64349   0.09289  -0.67885   0.09289  -0.67885
  3.26087   0.12589  -0.63717   0.12589  -0.63717   0.12365  -0.67265   0.12365  -0.67265
  3.31104   0.15019  -0.62964   0.15019  -0.62964   0.14871  -0.66519   0.14871  -0.66519
  3.36120   0.16457  -0.62138   0.16457  -0.62138   0.16364  -0.65698   0.16364  -0.65698
  3.41137   0.16830  -0.61294   0.16830  -0.61294   0.16762  -0.64857   0.16762  -0.64857
  3.46154   0.16466  -0.60468   0.16466  -0.60468   0.16390  -0.64035   0.16390  -0.64035
  3.51171   0.15929  -0.59669   0.15929  -0.59669   0.15811  -0.63242   0.15811  -0.63242
  3.56187   0.15724  -0.58880   0.15724  -0.58880   0.15528  -0.62463   0.15528  -0.62463
  3.61204   0.16067  -0.58074   0.16067  -0.58074   0.15761  -0.61672   0.15761  -0.61672
  3.66221   0.16856  -0.57228   0.16856  -0.57228   0.16422  -0.60848   0.16422  -0.60848
  3.71237   0.17798  -0.56336   0.17798  -0.56336   0.17240  -0.59983   0.17240  -0.59983
  3.76254   0.18585  -0.55403   0.18585  -0.55403   0.17932  -0.59084   0.17932  -0.59084
  3.81271   0.19024  -0.54449   0.19024  -0.54449   0.18325  -0.58164   0.18325  -0.58164
  3.86288   0.19088  -0.53491   0.19088  -0.53491   0.18393  -0.57242   0.18393  -0.57242
  3.91304   0.18882  -0.52544   0.18882  -0.52544   0.18230  -0.56327   0.18230  -0.56327
  3.96321   0.18537  -0.51614   0.18537  -0.51614   0.17949  -0.55427   0.17949  -0.55427
  4.01338   0.18079  -0.50707   0.18079  -0.50707   0.17560  -0.54546   0.17560  -0.54546
  4.06355   0.17365  -0.49836   0.17365  -0.49836   0.16916  -0.53697   0.16916  -0.53697
  4.11371   0.16175  -0.49024   0.16175  -0.49024   0.15793  -0.52905   0.15793  -0.52905
  4.16388   0.14407  -0.48302   0.14407  -0.48302   0.14085  -0.52198   0.14085  -0.52198
  4.21405   0.12235  -0.47688   0.12235  -0.47688   0.11957  -0.51598   0.11957  -0.51598
  4.26421   0.10100  -0.47181   0.10100  -0.47181   0.09839  -0.51105   0.09839  -0.51105
  4.31438   0.08526  -0.46753   0.08526  -0.46753   0.08243  -0.50691   0.08243  -0.50691
  4.36455   0.07905  -0.46357   0.07905  -0.46357   0.07557  -0.50312   0.07557  -0.50312
  4.41472   0.08371  -0.45937   0.08371  -0.45937   0.07915  -0.49915   0.07915  -0.49915
  4.46488   0.09790  -0.45446   0.09790  -0.45446   0.09190  -0.49454   0.09190  -0.49454
  4.51505   0.11797  -0.44854   0.11797  -0.44854   0.11041  -0.48900   0.11041  -0.48900
  4.56522   0.13883  -0.44157   0.13883  -0.44157   0.12992  -0.48248   0.12992  -0.48248
  4.61538   0.15521  -0.43379   0.15521  -0.43379   0.14552  -0.47518   0.14552  -0.47518
  4.66555   0.16336  -0.42559   0.16336  -0.42559   0.15369  -0.46747   0.15369  -0.46747
  4.71572   0.16242  -0.41744   0.16242  -0.41744   0.15353  -0.45977   0.15353  -0.45977
  4.76589   0.15469  -0.40968   0.15469  -0.40968   0.14708  -0.45239   0.14708  -0.45239
  4.81605   0.14490  -0.40242   0.14490  -0.40242   0.13868  -0.44544   0.13868  -0.44544
  4.86622   0.13893  -0.39545   0.13893  -0.39545   0.13391  -0.43872   0.13391  -0.43872
  4.91639   0.14223  -0.38831   0.14223  -0.38831   0.13801  -0.43179   0.13801  -0.43179
  4.96656   0.15779  -0.38039   0.15779  -0.38039   0.15400  -0.42407   0.15400  -0.42407
  5.01672   0.18450  -0.37114   0.18450  -0.37114   0.18092  -0.41499   0.18092  -0.41499