ESCALE ; pCOOP file generated by LOBSTER. Energy is shifted such that the Fermi level lies at 0 eV.
         2          2        301  -1.24088e+01   2.64139e+00  -2.37533e+00 
Average
No.1:Mo31->Au45(2.9935218898025431)
-10.03344   0.00000  -0.46574   0.00000  -0.46574   0.00000  -0.46599   0.00000  -0.46599
 -9.98328   0.00000  -0.46574   0.00000  -0.46574   0.00000  -0.46599   0.00000  -0.46599
 -9.93311   0.00000  -0.46574   0.00000  -0.46574   0.00000  -0.46599   0.00000  -0.46599
 -9.88294   0.00000  -0.46574   0.00000  -0.46574   0.00000  -0.46599   0.00000  -0.46599
 -9.83278   0.00000  -0.46574   0.00000  -0.46574   0.00000  -0.46599   0.00000  -0.46599
 -9.78261   0.00000  -0.46574   0.00000  -0.46574  -0.00000  -0.46599  -0.00000  -0.46599
 -9.73244   0.00000  -0.46574   0.00000  -0.46574   0.00000  -0.46599   0.00000  -0.46599
 -9.68227   0.00000  -0.46574   0.00000  -0.46574   0.00000  -0.46599   0.00000  -0.46599
 -9.63211   0.00000  -0.46574   0.00000  -0.46574   0.00000  -0.46599   0.00000  -0.46599
 -9.58194   0.00000  -0.46574   0.00000  -0.46574   0.00000  -0.46599   0.00000  -0.46599
 -9.53177   0.00000  -0.46574   0.00000  -0.46574   0.00000  -0.46599   0.00000  -0.46599
 -9.48161   0.00000  -0.46574   0.00000  -0.46574   0.00000  -0.46599   0.00000  -0.46599
 -9.43144   0.00000  -0.46574   0.00000  -0.46574   0.00000  -0.46599   0.00000  -0.46599
 -9.38127   0.00000  -0.46574   0.00000  -0.46574   0.00000  -0.46599   0.00000  -0.46599
 -9.33110   0.00000  -0.46574   0.00000  -0.46574   0.00000  -0.46599   0.00000  -0.46599
 -9.28094   0.00000  -0.46574   0.00000  -0.46574   0.00000  -0.46599   0.00000  -0.46599
 -9.23077   0.00000  -0.46574   0.00000  -0.46574   0.00000  -0.46599   0.00000  -0.46599
 -9.18060   0.00000  -0.46574   0.00000  -0.46574   0.00000  -0.46599   0.00000  -0.46599
 -9.13043   0.00000  -0.46574   0.00000  -0.46574   0.00000  -0.46599   0.00000  -0.46599
 -9.08027   0.00000  -0.46574   0.00000  -0.46574   0.00000  -0.46599   0.00000  -0.46599
 -9.03010   0.00000  -0.46574   0.00000  -0.46574   0.00000  -0.46599   0.00000  -0.46599
 -8.97993   0.00000  -0.46574   0.00000  -0.46574   0.00000  -0.46599   0.00000  -0.46599
 -8.92977   0.00000  -0.46574   0.00000  -0.46574   0.00000  -0.46599   0.00000  -0.46599
 -8.87960   0.00000  -0.46574   0.00000  -0.46574   0.00000  -0.46599   0.00000  -0.46599
 -8.82943   0.00000  -0.46574   0.00000  -0.46574   0.00000  -0.46599   0.00000  -0.46599
 -8.77926   0.00000  -0.46574   0.00000  -0.46574   0.00000  -0.46599   0.00000  -0.46599
 -8.72910   0.00000  -0.46574   0.00000  -0.46574   0.00000  -0.46599   0.00000  -0.46599
 -8.67893   0.00000  -0.46574   0.00000  -0.46574   0.00000  -0.46599   0.00000  -0.46599
 -8.62876   0.00000  -0.46574   0.00000  -0.46574   0.00000  -0.46599   0.00000  -0.46599
 -8.57860   0.00000  -0.46574   0.00000  -0.46574   0.00000  -0.46599   0.00000  -0.46599
 -8.52843   0.00000  -0.46574   0.00000  -0.46574   0.00000  -0.46599   0.00000  -0.46599
 -8.47826   0.00000  -0.46574   0.00000  -0.46574   0.00000  -0.46599   0.00000  -0.46599
 -8.42809   0.00000  -0.46574   0.00000  -0.46574   0.00000  -0.46599   0.00000  -0.46599
 -8.37793   0.00000  -0.46574   0.00000  -0.46574   0.00000  -0.46599   0.00000  -0.46599
 -8.32776   0.00000  -0.46574   0.00000  -0.46574   0.00000  -0.46599   0.00000  -0.46599
 -8.27759   0.00000  -0.46574   0.00000  -0.46574   0.00000  -0.46599   0.00000  -0.46599
 -8.22742   0.00000  -0.46574   0.00000  -0.46574   0.00000  -0.46599   0.00000  -0.46599
 -8.17726   0.00000  -0.46574   0.00000  -0.46574   0.00000  -0.46599   0.00000  -0.46599
 -8.12709   0.00000  -0.46574   0.00000  -0.46574   0.00000  -0.46599   0.00000  -0.46599
 -8.07692   0.00000  -0.46574   0.00000  -0.46574   0.00000  -0.46599   0.00000  -0.46599
 -8.02676   0.00000  -0.46574   0.00000  -0.46574   0.00000  -0.46598   0.00000  -0.46598
 -7.97659   0.00001  -0.46574   0.00001  -0.46574   0.00001  -0.46598   0.00001  -0.46598
 -7.92642   0.00004  -0.46573   0.00004  -0.46573   0.00004  -0.46598   0.00004  -0.46598
 -7.87625   0.00013  -0.46573   0.00013  -0.46573   0.00013  -0.46598   0.00013  -0.46598
 -7.82609   0.00037  -0.46571   0.00037  -0.46571   0.00037  -0.46596   0.00037  -0.46596
 -7.77592   0.00094  -0.46566   0.00094  -0.46566   0.00094  -0.46591   0.00094  -0.46591
 -7.72575   0.00213  -0.46556   0.00213  -0.46556   0.00211  -0.46580   0.00211  -0.46580
 -7.67559   0.00426  -0.46534   0.00426  -0.46534   0.00423  -0.46559   0.00423  -0.46559
 -7.62542   0.00756  -0.46496   0.00756  -0.46496   0.00749  -0.46522   0.00749  -0.46522
 -7.57525   0.01186  -0.46437   0.01186  -0.46437   0.01176  -0.46463   0.01176  -0.46463
 -7.52508   0.01650  -0.46354   0.01650  -0.46354   0.01635  -0.46381   0.01635  -0.46381
 -7.47492   0.02033  -0.46252   0.02033  -0.46252   0.02015  -0.46279   0.02015  -0.46279
 -7.42475   0.02223  -0.46140   0.02223  -0.46140   0.02203  -0.46169   0.02203  -0.46169
 -7.37458   0.02155  -0.46032   0.02155  -0.46032   0.02134  -0.46062   0.02134  -0.46062
 -7.32441   0.01847  -0.45940   0.01847  -0.45940   0.01827  -0.45970   0.01827  -0.45970
 -7.27425   0.01378  -0.45871   0.01378  -0.45871   0.01359  -0.45902   0.01359  -0.45902
 -7.22408   0.00836  -0.45829   0.00836  -0.45829   0.00815  -0.45861   0.00815  -0.45861
 -7.17391   0.00274  -0.45815   0.00274  -0.45815   0.00250  -0.45849   0.00250  -0.45849
 -7.12375  -0.00292  -0.45830  -0.00292  -0.45830  -0.00321  -0.45865  -0.00321  -0.45865
 -7.07358  -0.00852  -0.45872  -0.00852  -0.45872  -0.00884  -0.45909  -0.00884  -0.45909
 -7.02341  -0.01361  -0.45941  -0.01361  -0.45941  -0.01394  -0.45979  -0.01394  -0.45979
 -6.97324  -0.01736  -0.46028  -0.01736  -0.46028  -0.01767  -0.46068  -0.01767  -0.46068
 -6.92308  -0.01902  -0.46123  -0.01902  -0.46123  -0.01927  -0.46164  -0.01927  -0.46164
 -6.87291  -0.01838  -0.46215  -0.01838  -0.46215  -0.01856  -0.46257  -0.01856  -0.46257
 -6.82274  -0.01609  -0.46296  -0.01609  -0.46296  -0.01619  -0.46339  -0.01619  -0.46339
 -6.77258  -0.01330  -0.46363  -0.01330  -0.46363  -0.01332  -0.46406  -0.01332  -0.46406
 -6.72241  -0.01115  -0.46419  -0.01115  -0.46419  -0.01111  -0.46461  -0.01111  -0.46461
 -6.67224  -0.01031  -0.46470  -0.01031  -0.46470  -0.01022  -0.46513  -0.01022  -0.46513
 -6.62207  -0.01089  -0.46525  -0.01089  -0.46525  -0.01075  -0.46566  -0.01075  -0.46566
 -6.57191  -0.01254  -0.46588  -0.01254  -0.46588  -0.01237  -0.46628  -0.01237  -0.46628
 -6.52174  -0.01471  -0.46662  -0.01471  -0.46662  -0.01451  -0.46701  -0.01451  -0.46701
 -6.47157  -0.01672  -0.46746  -0.01672  -0.46746  -0.01650  -0.46784  -0.01650  -0.46784
 -6.42140  -0.01799  -0.46836  -0.01799  -0.46836  -0.01777  -0.46873  -0.01777  -0.46873
 -6.37124  -0.01825  -0.46927  -0.01825  -0.46927  -0.01805  -0.46964  -0.01805  -0.46964
 -6.32107  -0.01770  -0.47016  -0.01770  -0.47016  -0.01752  -0.47052  -0.01752  -0.47052
 -6.27090  -0.01689  -0.47101  -0.01689  -0.47101  -0.01674  -0.47136  -0.01674  -0.47136
 -6.22074  -0.01645  -0.47184  -0.01645  -0.47184  -0.01632  -0.47217  -0.01632  -0.47217
 -6.17057  -0.01670  -0.47267  -0.01670  -0.47267  -0.01659  -0.47301  -0.01659  -0.47301
 -6.12040  -0.01744  -0.47355  -0.01744  -0.47355  -0.01734  -0.47388  -0.01734  -0.47388
 -6.07023  -0.01808  -0.47445  -0.01808  -0.47445  -0.01799  -0.47478  -0.01799  -0.47478
 -6.02007  -0.01797  -0.47536  -0.01797  -0.47536  -0.01789  -0.47568  -0.01789  -0.47568
 -5.96990  -0.01669  -0.47619  -0.01669  -0.47619  -0.01663  -0.47651  -0.01663  -0.47651
 -5.91973  -0.01434  -0.47691  -0.01434  -0.47691  -0.01430  -0.47723  -0.01430  -0.47723
 -5.86957  -0.01136  -0.47748  -0.01136  -0.47748  -0.01135  -0.47780  -0.01135  -0.47780
 -5.81940  -0.00840  -0.47790  -0.00840  -0.47790  -0.00841  -0.47822  -0.00841  -0.47822
 -5.76923  -0.00598  -0.47820  -0.00598  -0.47820  -0.00600  -0.47852  -0.00600  -0.47852
 -5.71906  -0.00437  -0.47842  -0.00437  -0.47842  -0.00440  -0.47874  -0.00440  -0.47874
 -5.66890  -0.00358  -0.47860  -0.00358  -0.47860  -0.00362  -0.47892  -0.00362  -0.47892
 -5.61873  -0.00344  -0.47878  -0.00344  -0.47878  -0.00348  -0.47910  -0.00348  -0.47910
 -5.56856  -0.00370  -0.47896  -0.00370  -0.47896  -0.00374  -0.47929  -0.00374  -0.47929
 -5.51839  -0.00415  -0.47917  -0.00415  -0.47917  -0.00420  -0.47950  -0.00420  -0.47950
 -5.46823  -0.00465  -0.47940  -0.00465  -0.47940  -0.00471  -0.47973  -0.00471  -0.47973
 -5.41806  -0.00514  -0.47966  -0.00514  -0.47966  -0.00522  -0.47999  -0.00522  -0.47999
 -5.36789  -0.00561  -0.47994  -0.00561  -0.47994  -0.00572  -0.48028  -0.00572  -0.48028
 -5.31773  -0.00610  -0.48025  -0.00610  -0.48025  -0.00621  -0.48059  -0.00621  -0.48059
 -5.26756  -0.00662  -0.48058  -0.00662  -0.48058  -0.00673  -0.48093  -0.00673  -0.48093
 -5.21739  -0.00716  -0.48094  -0.00716  -0.48094  -0.00726  -0.48129  -0.00726  -0.48129
 -5.16722  -0.00769  -0.48132  -0.00769  -0.48132  -0.00777  -0.48168  -0.00777  -0.48168
 -5.11706  -0.00811  -0.48173  -0.00811  -0.48173  -0.00818  -0.48209  -0.00818  -0.48209
 -5.06689  -0.00840  -0.48215  -0.00840  -0.48215  -0.00847  -0.48252  -0.00847  -0.48252
 -5.01672  -0.00866  -0.48259  -0.00866  -0.48259  -0.00875  -0.48296  -0.00875  -0.48296
 -4.96656  -0.00906  -0.48304  -0.00906  -0.48304  -0.00918  -0.48342  -0.00918  -0.48342
 -4.91639  -0.00972  -0.48353  -0.00972  -0.48353  -0.00987  -0.48391  -0.00987  -0.48391
 -4.86622  -0.01055  -0.48406  -0.01055  -0.48406  -0.01071  -0.48445  -0.01071  -0.48445
 -4.81605  -0.01125  -0.48462  -0.01125  -0.48462  -0.01141  -0.48502  -0.01141  -0.48502
 -4.76589  -0.01146  -0.48520  -0.01146  -0.48520  -0.01162  -0.48561  -0.01162  -0.48561
 -4.71572  -0.01107  -0.48575  -0.01107  -0.48575  -0.01121  -0.48617  -0.01121  -0.48617
 -4.66555  -0.01024  -0.48627  -0.01024  -0.48627  -0.01033  -0.48669  -0.01033  -0.48669
 -4.61538  -0.00928  -0.48673  -0.00928  -0.48673  -0.00929  -0.48715  -0.00929  -0.48715
 -4.56522  -0.00846  -0.48716  -0.00846  -0.48716  -0.00836  -0.48757  -0.00836  -0.48757
 -4.51505  -0.00788  -0.48755  -0.00788  -0.48755  -0.00763  -0.48795  -0.00763  -0.48795
 -4.46488  -0.00753  -0.48793  -0.00753  -0.48793  -0.00711  -0.48831  -0.00711  -0.48831
 -4.41472  -0.00738  -0.48830  -0.00738  -0.48830  -0.00682  -0.48865  -0.00682  -0.48865
 -4.36455  -0.00747  -0.48868  -0.00747  -0.48868  -0.00683  -0.48900  -0.00683  -0.48900
 -4.31438  -0.00784  -0.48907  -0.00784  -0.48907  -0.00719  -0.48936  -0.00719  -0.48936
 -4.26421  -0.00841  -0.48949  -0.00841  -0.48949  -0.00783  -0.48975  -0.00783  -0.48975
 -4.21405  -0.00896  -0.48994  -0.00896  -0.48994  -0.00851  -0.49018  -0.00851  -0.49018
 -4.16388  -0.00924  -0.49040  -0.00924  -0.49040  -0.00894  -0.49063  -0.00894  -0.49063
 -4.11371  -0.00912  -0.49086  -0.00912  -0.49086  -0.00895  -0.49107  -0.00895  -0.49107
 -4.06355  -0.00859  -0.49129  -0.00859  -0.49129  -0.00853  -0.49150  -0.00853  -0.49150
 -4.01338  -0.00783  -0.49169  -0.00783  -0.49169  -0.00782  -0.49189  -0.00782  -0.49189
 -3.96321  -0.00703  -0.49204  -0.00703  -0.49204  -0.00705  -0.49225  -0.00705  -0.49225
 -3.91304  -0.00633  -0.49236  -0.00633  -0.49236  -0.00636  -0.49257  -0.00636  -0.49257
 -3.86288  -0.00579  -0.49265  -0.00579  -0.49265  -0.00583  -0.49286  -0.00583  -0.49286
 -3.81271  -0.00543  -0.49292  -0.00543  -0.49292  -0.00547  -0.49313  -0.00547  -0.49313
 -3.76254  -0.00526  -0.49318  -0.00526  -0.49318  -0.00531  -0.49340  -0.00531  -0.49340
 -3.71237  -0.00534  -0.49345  -0.00534  -0.49345  -0.00540  -0.49367  -0.00540  -0.49367
 -3.66221  -0.00573  -0.49374  -0.00573  -0.49374  -0.00580  -0.49396  -0.00580  -0.49396
 -3.61204  -0.00644  -0.49406  -0.00644  -0.49406  -0.00651  -0.49429  -0.00651  -0.49429
 -3.56187  -0.00737  -0.49443  -0.00737  -0.49443  -0.00744  -0.49466  -0.00744  -0.49466
 -3.51171  -0.00830  -0.49485  -0.00830  -0.49485  -0.00837  -0.49508  -0.00837  -0.49508
 -3.46154  -0.00896  -0.49530  -0.00896  -0.49530  -0.00902  -0.49553  -0.00902  -0.49553
 -3.41137  -0.00912  -0.49576  -0.00912  -0.49576  -0.00918  -0.49600  -0.00918  -0.49600
 -3.36120  -0.00872  -0.49619  -0.00872  -0.49619  -0.00878  -0.49644  -0.00878  -0.49644
 -3.31104  -0.00783  -0.49659  -0.00783  -0.49659  -0.00789  -0.49683  -0.00789  -0.49683
 -3.26087  -0.00664  -0.49692  -0.00664  -0.49692  -0.00670  -0.49717  -0.00670  -0.49717
 -3.21070  -0.00536  -0.49719  -0.00536  -0.49719  -0.00541  -0.49744  -0.00541  -0.49744
 -3.16054  -0.00418  -0.49740  -0.00418  -0.49740  -0.00423  -0.49765  -0.00423  -0.49765
 -3.11037  -0.00327  -0.49756  -0.00327  -0.49756  -0.00332  -0.49782  -0.00332  -0.49782
 -3.06020  -0.00278  -0.49770  -0.00278  -0.49770  -0.00281  -0.49796  -0.00281  -0.49796
 -3.01003  -0.00276  -0.49784  -0.00276  -0.49784  -0.00278  -0.49810  -0.00278  -0.49810
 -2.95987  -0.00320  -0.49800  -0.00320  -0.49800  -0.00322  -0.49826  -0.00322  -0.49826
 -2.90970  -0.00401  -0.49820  -0.00401  -0.49820  -0.00402  -0.49846  -0.00402  -0.49846
 -2.85953  -0.00501  -0.49845  -0.00501  -0.49845  -0.00501  -0.49871  -0.00501  -0.49871
 -2.80936  -0.00599  -0.49875  -0.00599  -0.49875  -0.00598  -0.49901  -0.00598  -0.49901
 -2.75920  -0.00675  -0.49909  -0.00675  -0.49909  -0.00674  -0.49935  -0.00674  -0.49935
 -2.70903  -0.00716  -0.49945  -0.00716  -0.49945  -0.00713  -0.49971  -0.00713  -0.49971
 -2.65886  -0.00717  -0.49981  -0.00717  -0.49981  -0.00713  -0.50007  -0.00713  -0.50007
 -2.60870  -0.00684  -0.50015  -0.00684  -0.50015  -0.00679  -0.50041  -0.00679  -0.50041
 -2.55853  -0.00624  -0.50047  -0.00624  -0.50047  -0.00619  -0.50072  -0.00619  -0.50072
 -2.50836  -0.00543  -0.50074  -0.00543  -0.50074  -0.00537  -0.50099  -0.00537  -0.50099
 -2.45819  -0.00443  -0.50096  -0.00443  -0.50096  -0.00438  -0.50121  -0.00438  -0.50121
 -2.40803  -0.00329  -0.50113  -0.00329  -0.50113  -0.00324  -0.50137  -0.00324  -0.50137
 -2.35786  -0.00206  -0.50123  -0.00206  -0.50123  -0.00203  -0.50147  -0.00203  -0.50147
 -2.30769  -0.00086  -0.50127  -0.00086  -0.50127  -0.00084  -0.50151  -0.00084  -0.50151
 -2.25753   0.00017  -0.50126   0.00017  -0.50126   0.00018  -0.50150   0.00018  -0.50150
 -2.20736   0.00087  -0.50122   0.00087  -0.50122   0.00088  -0.50146   0.00088  -0.50146
 -2.15719   0.00110  -0.50117   0.00110  -0.50117   0.00110  -0.50141   0.00110  -0.50141
 -2.10702   0.00077  -0.50113   0.00077  -0.50113   0.00077  -0.50137   0.00077  -0.50137
 -2.05686  -0.00008  -0.50113  -0.00008  -0.50113  -0.00007  -0.50137  -0.00007  -0.50137
 -2.00669  -0.00129  -0.50120  -0.00129  -0.50120  -0.00128  -0.50143  -0.00128  -0.50143
 -1.95652  -0.00265  -0.50133  -0.00265  -0.50133  -0.00264  -0.50157  -0.00264  -0.50157
 -1.90635  -0.00388  -0.50152  -0.00388  -0.50152  -0.00389  -0.50176  -0.00389  -0.50176
 -1.85619  -0.00477  -0.50176  -0.00477  -0.50176  -0.00481  -0.50200  -0.00481  -0.50200
 -1.80602  -0.00514  -0.50202  -0.00514  -0.50202  -0.00522  -0.50226  -0.00522  -0.50226
 -1.75585  -0.00491  -0.50227  -0.00491  -0.50227  -0.00504  -0.50252  -0.00504  -0.50252
 -1.70569  -0.00415  -0.50247  -0.00415  -0.50247  -0.00432  -0.50273  -0.00432  -0.50273
 -1.65552  -0.00309  -0.50263  -0.00309  -0.50263  -0.00330  -0.50290  -0.00330  -0.50290
 -1.60535  -0.00206  -0.50273  -0.00206  -0.50273  -0.00228  -0.50301  -0.00228  -0.50301
 -1.55518  -0.00133  -0.50280  -0.00133  -0.50280  -0.00154  -0.50309  -0.00154  -0.50309
 -1.50502  -0.00105  -0.50285  -0.00105  -0.50285  -0.00122  -0.50315  -0.00122  -0.50315
 -1.45485  -0.00116  -0.50291  -0.00116  -0.50291  -0.00130  -0.50322  -0.00130  -0.50322
 -1.40468  -0.00154  -0.50299  -0.00154  -0.50299  -0.00163  -0.50330  -0.00163  -0.50330
 -1.35452  -0.00204  -0.50309  -0.00204  -0.50309  -0.00209  -0.50340  -0.00209  -0.50340
 -1.30435  -0.00257  -0.50322  -0.00257  -0.50322  -0.00258  -0.50353  -0.00258  -0.50353
 -1.25418  -0.00311  -0.50338  -0.00311  -0.50338  -0.00306  -0.50369  -0.00306  -0.50369
 -1.20401  -0.00356  -0.50355  -0.00356  -0.50355  -0.00347  -0.50386  -0.00347  -0.50386
 -1.15385  -0.00381  -0.50374  -0.00381  -0.50374  -0.00370  -0.50405  -0.00370  -0.50405
 -1.10368  -0.00376  -0.50393  -0.00376  -0.50393  -0.00364  -0.50423  -0.00364  -0.50423
 -1.05351  -0.00339  -0.50410  -0.00339  -0.50410  -0.00328  -0.50439  -0.00328  -0.50439
 -1.00334  -0.00281  -0.50424  -0.00281  -0.50424  -0.00272  -0.50453  -0.00272  -0.50453
 -0.95318  -0.00222  -0.50436  -0.00222  -0.50436  -0.00216  -0.50464  -0.00216  -0.50464
 -0.90301  -0.00180  -0.50445  -0.00180  -0.50445  -0.00177  -0.50473  -0.00177  -0.50473
 -0.85284  -0.00171  -0.50453  -0.00171  -0.50453  -0.00170  -0.50481  -0.00170  -0.50481
 -0.80268  -0.00194  -0.50463  -0.00194  -0.50463  -0.00196  -0.50491  -0.00196  -0.50491
 -0.75251  -0.00240  -0.50475  -0.00240  -0.50475  -0.00246  -0.50504  -0.00246  -0.50504
 -0.70234  -0.00294  -0.50490  -0.00294  -0.50490  -0.00303  -0.50519  -0.00303  -0.50519
 -0.65217  -0.00336  -0.50507  -0.00336  -0.50507  -0.00348  -0.50536  -0.00348  -0.50536
 -0.60201  -0.00348  -0.50524  -0.00348  -0.50524  -0.00363  -0.50554  -0.00363  -0.50554
 -0.55184  -0.00324  -0.50540  -0.00324  -0.50540  -0.00339  -0.50572  -0.00339  -0.50572
 -0.50167  -0.00267  -0.50554  -0.00267  -0.50554  -0.00281  -0.50586  -0.00281  -0.50586
 -0.45151  -0.00192  -0.50563  -0.00192  -0.50563  -0.00203  -0.50596  -0.00203  -0.50596
 -0.40134  -0.00115  -0.50569  -0.00115  -0.50569  -0.00123  -0.50602  -0.00123  -0.50602
 -0.35117  -0.00052  -0.50572  -0.00052  -0.50572  -0.00056  -0.50605  -0.00056  -0.50605
 -0.30100  -0.00010  -0.50572  -0.00010  -0.50572  -0.00011  -0.50605  -0.00011  -0.50605
 -0.25084   0.00011  -0.50572   0.00011  -0.50572   0.00010  -0.50605   0.00010  -0.50605
 -0.20067   0.00009  -0.50571   0.00009  -0.50571   0.00009  -0.50604   0.00009  -0.50604
 -0.15050  -0.00014  -0.50572  -0.00014  -0.50572  -0.00014  -0.50605  -0.00014  -0.50605
 -0.10033  -0.00055  -0.50575  -0.00055  -0.50575  -0.00056  -0.50608  -0.00056  -0.50608
 -0.05017  -0.00111  -0.50580  -0.00111  -0.50580  -0.00112  -0.50614  -0.00112  -0.50614
 -0.00000  -0.00167  -0.50589  -0.00167  -0.50589  -0.00168  -0.50622  -0.00168  -0.50622
  0.05017  -0.00208  -0.50599  -0.00208  -0.50599  -0.00209  -0.50633  -0.00209  -0.50633
  0.10033  -0.00222  -0.50610  -0.00222  -0.50610  -0.00223  -0.50644  -0.00223  -0.50644
  0.15050  -0.00207  -0.50620  -0.00207  -0.50620  -0.00208  -0.50654  -0.00208  -0.50654
  0.20067  -0.00175  -0.50629  -0.00175  -0.50629  -0.00176  -0.50663  -0.00176  -0.50663
  0.25084  -0.00148  -0.50637  -0.00148  -0.50637  -0.00149  -0.50670  -0.00149  -0.50670
  0.30100  -0.00146  -0.50644  -0.00146  -0.50644  -0.00147  -0.50678  -0.00147  -0.50678
  0.35117  -0.00181  -0.50653  -0.00181  -0.50653  -0.00183  -0.50687  -0.00183  -0.50687
  0.40134  -0.00250  -0.50666  -0.00250  -0.50666  -0.00252  -0.50700  -0.00252  -0.50700
  0.45151  -0.00342  -0.50683  -0.00342  -0.50683  -0.00345  -0.50717  -0.00345  -0.50717
  0.50167  -0.00440  -0.50705  -0.00440  -0.50705  -0.00443  -0.50739  -0.00443  -0.50739
  0.55184  -0.00525  -0.50731  -0.00525  -0.50731  -0.00528  -0.50766  -0.00528  -0.50766
  0.60201  -0.00577  -0.50760  -0.00577  -0.50760  -0.00579  -0.50795  -0.00579  -0.50795
  0.65217  -0.00580  -0.50789  -0.00580  -0.50789  -0.00582  -0.50824  -0.00582  -0.50824
  0.70234  -0.00529  -0.50816  -0.00529  -0.50816  -0.00531  -0.50850  -0.00531  -0.50850
  0.75251  -0.00435  -0.50838  -0.00435  -0.50838  -0.00436  -0.50872  -0.00436  -0.50872
  0.80268  -0.00321  -0.50854  -0.00321  -0.50854  -0.00322  -0.50888  -0.00322  -0.50888
  0.85284  -0.00214  -0.50864  -0.00214  -0.50864  -0.00215  -0.50899  -0.00215  -0.50899
  0.90301  -0.00136  -0.50871  -0.00136  -0.50871  -0.00136  -0.50906  -0.00136  -0.50906
  0.95318  -0.00097  -0.50876  -0.00097  -0.50876  -0.00097  -0.50911  -0.00097  -0.50911
  1.00334  -0.00103  -0.50881  -0.00103  -0.50881  -0.00103  -0.50916  -0.00103  -0.50916
  1.05351  -0.00155  -0.50889  -0.00155  -0.50889  -0.00155  -0.50924  -0.00155  -0.50924
  1.10368  -0.00251  -0.50902  -0.00251  -0.50902  -0.00251  -0.50937  -0.00251  -0.50937
  1.15385  -0.00377  -0.50921  -0.00377  -0.50921  -0.00377  -0.50955  -0.00377  -0.50955
  1.20401  -0.00505  -0.50946  -0.00505  -0.50946  -0.00505  -0.50981  -0.00505  -0.50981
  1.25418  -0.00599  -0.50976  -0.00599  -0.50976  -0.00599  -0.51011  -0.00599  -0.51011
  1.30435  -0.00624  -0.51007  -0.00624  -0.51007  -0.00624  -0.51042  -0.00624  -0.51042
  1.35452  -0.00565  -0.51036  -0.00565  -0.51036  -0.00564  -0.51070  -0.00564  -0.51070
  1.40468  -0.00429  -0.51057  -0.00429  -0.51057  -0.00428  -0.51092  -0.00428  -0.51092
  1.45485  -0.00249  -0.51070  -0.00249  -0.51070  -0.00248  -0.51104  -0.00248  -0.51104
  1.50502  -0.00064  -0.51073  -0.00064  -0.51073  -0.00062  -0.51107  -0.00062  -0.51107
  1.55518   0.00095  -0.51068   0.00095  -0.51068   0.00097  -0.51103   0.00097  -0.51103
  1.60535   0.00211  -0.51057   0.00211  -0.51057   0.00214  -0.51092   0.00214  -0.51092
  1.65552   0.00286  -0.51043   0.00286  -0.51043   0.00289  -0.51077   0.00289  -0.51077
  1.70569   0.00331  -0.51026   0.00331  -0.51026   0.00334  -0.51061   0.00334  -0.51061
  1.75585   0.00363  -0.51008   0.00363  -0.51008   0.00366  -0.51042   0.00366  -0.51042
  1.80602   0.00400  -0.50988   0.00400  -0.50988   0.00403  -0.51022   0.00403  -0.51022
  1.85619   0.00465  -0.50965   0.00465  -0.50965   0.00467  -0.50999   0.00467  -0.50999
  1.90635   0.00579  -0.50936   0.00579  -0.50936   0.00580  -0.50969   0.00580  -0.50969
  1.95652   0.00745  -0.50898   0.00745  -0.50898   0.00744  -0.50932   0.00744  -0.50932
  2.00669   0.00933  -0.50852   0.00933  -0.50852   0.00929  -0.50886   0.00929  -0.50886
  2.05686   0.01082  -0.50797   0.01082  -0.50797   0.01077  -0.50831   0.01077  -0.50831
  2.10702   0.01123  -0.50741   0.01123  -0.50741   0.01118  -0.50775   0.01118  -0.50775
  2.15719   0.01012  -0.50690   0.01012  -0.50690   0.01009  -0.50725   0.01009  -0.50725
  2.20736   0.00758  -0.50652   0.00758  -0.50652   0.00758  -0.50687   0.00758  -0.50687
  2.25753   0.00421  -0.50631   0.00421  -0.50631   0.00424  -0.50666   0.00424  -0.50666
  2.30769   0.00077  -0.50627   0.00077  -0.50627   0.00082  -0.50661   0.00082  -0.50661
  2.35786  -0.00212  -0.50638  -0.00212  -0.50638  -0.00207  -0.50672  -0.00207  -0.50672
  2.40803  -0.00424  -0.50659  -0.00424  -0.50659  -0.00421  -0.50693  -0.00421  -0.50693
  2.45819  -0.00562  -0.50687  -0.00562  -0.50687  -0.00563  -0.50721  -0.00563  -0.50721
  2.50836  -0.00640  -0.50719  -0.00640  -0.50719  -0.00646  -0.50754  -0.00646  -0.50754
  2.55853  -0.00661  -0.50753  -0.00661  -0.50753  -0.00671  -0.50787  -0.00671  -0.50787
  2.60870  -0.00623  -0.50784  -0.00623  -0.50784  -0.00635  -0.50819  -0.00635  -0.50819
  2.65886  -0.00533  -0.50811  -0.00533  -0.50811  -0.00545  -0.50846  -0.00545  -0.50846
  2.70903  -0.00416  -0.50831  -0.00416  -0.50831  -0.00425  -0.50868  -0.00425  -0.50868
  2.75920  -0.00310  -0.50847  -0.00310  -0.50847  -0.00316  -0.50884  -0.00316  -0.50884
  2.80936  -0.00252  -0.50860  -0.00252  -0.50860  -0.00254  -0.50896  -0.00254  -0.50896
  2.85953  -0.00253  -0.50872  -0.00253  -0.50872  -0.00254  -0.50909  -0.00254  -0.50909
  2.90970  -0.00300  -0.50887  -0.00300  -0.50887  -0.00299  -0.50924  -0.00299  -0.50924
  2.95987  -0.00356  -0.50905  -0.00356  -0.50905  -0.00355  -0.50942  -0.00355  -0.50942
  3.01003  -0.00380  -0.50924  -0.00380  -0.50924  -0.00380  -0.50961  -0.00380  -0.50961
  3.06020  -0.00342  -0.50941  -0.00342  -0.50941  -0.00344  -0.50978  -0.00344  -0.50978
  3.11037  -0.00229  -0.50953  -0.00229  -0.50953  -0.00234  -0.50990  -0.00234  -0.50990
  3.16054  -0.00046  -0.50955  -0.00046  -0.50955  -0.00054  -0.50993  -0.00054  -0.50993
  3.21070   0.00183  -0.50946   0.00183  -0.50946   0.00171  -0.50984   0.00171  -0.50984
  3.26087   0.00413  -0.50925   0.00413  -0.50925   0.00397  -0.50964   0.00397  -0.50964
  3.31104   0.00593  -0.50896   0.00593  -0.50896   0.00574  -0.50935   0.00574  -0.50935
  3.36120   0.00677  -0.50862   0.00677  -0.50862   0.00655  -0.50903   0.00655  -0.50903
  3.41137   0.00644  -0.50829   0.00644  -0.50829   0.00622  -0.50871   0.00622  -0.50871
  3.46154   0.00513  -0.50804   0.00513  -0.50804   0.00493  -0.50847   0.00493  -0.50847
  3.51171   0.00331  -0.50787   0.00331  -0.50787   0.00315  -0.50831   0.00315  -0.50831
  3.56187   0.00157  -0.50779   0.00157  -0.50779   0.00145  -0.50824   0.00145  -0.50824
  3.61204   0.00041  -0.50777   0.00041  -0.50777   0.00033  -0.50822   0.00033  -0.50822
  3.66221   0.00011  -0.50777   0.00011  -0.50777   0.00005  -0.50822   0.00005  -0.50822
  3.71237   0.00067  -0.50773   0.00067  -0.50773   0.00062  -0.50818   0.00062  -0.50818
  3.76254   0.00191  -0.50764   0.00191  -0.50764   0.00186  -0.50809   0.00186  -0.50809
  3.81271   0.00357  -0.50746   0.00357  -0.50746   0.00351  -0.50792   0.00351  -0.50792
  3.86288   0.00541  -0.50719   0.00541  -0.50719   0.00532  -0.50765   0.00532  -0.50765
  3.91304   0.00729  -0.50682   0.00729  -0.50682   0.00718  -0.50729   0.00718  -0.50729
  3.96321   0.00913  -0.50636   0.00913  -0.50636   0.00900  -0.50684   0.00900  -0.50684
  4.01338   0.01078  -0.50582   0.01078  -0.50582   0.01063  -0.50630   0.01063  -0.50630
  4.06355   0.01195  -0.50522   0.01195  -0.50522   0.01179  -0.50571   0.01179  -0.50571
  4.11371   0.01228  -0.50461   0.01228  -0.50461   0.01212  -0.50510   0.01212  -0.50510
  4.16388   0.01159  -0.50402   0.01159  -0.50402   0.01144  -0.50453   0.01144  -0.50453
  4.21405   0.01007  -0.50352   0.01007  -0.50352   0.00994  -0.50403   0.00994  -0.50403
  4.26421   0.00832  -0.50310   0.00832  -0.50310   0.00821  -0.50362   0.00821  -0.50362
  4.31438   0.00712  -0.50274   0.00712  -0.50274   0.00702  -0.50327   0.00702  -0.50327
  4.36455   0.00718  -0.50238   0.00718  -0.50238   0.00708  -0.50291   0.00708  -0.50291
  4.41472   0.00889  -0.50194   0.00889  -0.50194   0.00876  -0.50247   0.00876  -0.50247
  4.46488   0.01210  -0.50133   0.01210  -0.50133   0.01192  -0.50187   0.01192  -0.50187
  4.51505   0.01614  -0.50052   0.01614  -0.50052   0.01591  -0.50108   0.01591  -0.50108
  4.56522   0.01991  -0.49952   0.01991  -0.49952   0.01963  -0.50009   0.01963  -0.50009
  4.61538   0.02225  -0.49841   0.02225  -0.49841   0.02195  -0.49899   0.02195  -0.49899
  4.66555   0.02238  -0.49728   0.02238  -0.49728   0.02210  -0.49788   0.02210  -0.49788
  4.71572   0.02027  -0.49627   0.02027  -0.49627   0.02005  -0.49688   0.02005  -0.49688
  4.76589   0.01667  -0.49543   0.01667  -0.49543   0.01651  -0.49605   0.01651  -0.49605
  4.81605   0.01278  -0.49479   0.01278  -0.49479   0.01270  -0.49541   0.01270  -0.49541
  4.86622   0.00987  -0.49429   0.00987  -0.49429   0.00985  -0.49492   0.00985  -0.49492
  4.91639   0.00884  -0.49385   0.00884  -0.49385   0.00887  -0.49447   0.00887  -0.49447
  4.96656   0.01001  -0.49335   0.01001  -0.49335   0.01007  -0.49397   0.01007  -0.49397
  5.01672   0.01298  -0.49270   0.01298  -0.49270   0.01306  -0.49331   0.01306  -0.49331