  45   45    1    2
  1.6142254e+03   8.6346870e-10   8.6346917e-10   2.5000000e-09   5.0000000e-16
            1.000000e-04
  CAR
 DOS and projected DOS file by LOBSTER. Energy is shifted such that the Fermi level lies at 0 eV. 
      2.64138763     -12.40877960   301      -2.37533478       1.00000000
-10.03344   0.00000   0.00000  96.21481  97.15333
 -9.98328   0.00000   0.00000  96.21481  97.15333
 -9.93311   0.00000   0.00000  96.21481  97.15333
 -9.88294   0.00000   0.00000  96.21481  97.15333
 -9.83278   0.00000   0.00000  96.21481  97.15333
 -9.78261   0.00000   0.00000  96.21481  97.15333
 -9.73244   0.00000   0.00000  96.21481  97.15333
 -9.68227   0.00000   0.00000  96.21481  97.15333
 -9.63211   0.00000   0.00000  96.21481  97.15333
 -9.58194   0.00000   0.00000  96.21481  97.15333
 -9.53177   0.00000   0.00000  96.21481  97.15333
 -9.48161   0.00000   0.00000  96.21481  97.15333
 -9.43144   0.00000   0.00000  96.21481  97.15333
 -9.38127   0.00000   0.00000  96.21481  97.15333
 -9.33110   0.00000   0.00000  96.21481  97.15333
 -9.28094   0.00000   0.00000  96.21481  97.15333
 -9.23077   0.00000   0.00000  96.21481  97.15333
 -9.18060   0.00000   0.00000  96.21481  97.15333
 -9.13043   0.00000   0.00000  96.21481  97.15333
 -9.08027   0.00000   0.00000  96.21481  97.15333
 -9.03010   0.00000   0.00000  96.21481  97.15333
 -8.97993   0.00000   0.00000  96.21481  97.15333
 -8.92977   0.00000   0.00000  96.21481  97.15333
 -8.87960   0.00000   0.00000  96.21481  97.15333
 -8.82943   0.00000   0.00000  96.21481  97.15333
 -8.77926   0.00000   0.00000  96.21481  97.15333
 -8.72910   0.00000   0.00000  96.21481  97.15333
 -8.67893   0.00000   0.00000  96.21481  97.15333
 -8.62876   0.00000   0.00000  96.21481  97.15333
 -8.57860   0.00000   0.00000  96.21481  97.15333
 -8.52843   0.00000   0.00000  96.21481  97.15333
 -8.47826   0.00000   0.00000  96.21481  97.15333
 -8.42809   0.00000   0.00000  96.21481  97.15333
 -8.37793   0.00000   0.00000  96.21481  97.15333
 -8.32776   0.00000   0.00000  96.21481  97.15333
 -8.27759   0.00000   0.00000  96.21481  97.15333
 -8.22742   0.00000   0.00000  96.21481  97.15333
 -8.17726   0.00000   0.00000  96.21481  97.15333
 -8.12709   0.00001   0.00001  96.21481  97.15333
 -8.07692   0.00008   0.00008  96.21481  97.15334
 -8.02676   0.00034   0.00035  96.21483  97.15335
 -7.97659   0.00139   0.00139  96.21490  97.15342
 -7.92642   0.00498   0.00499  96.21515  97.15367
 -7.87625   0.01584   0.01586  96.21594  97.15447
 -7.82609   0.04473   0.04480  96.21819  97.15672
 -7.77592   0.11223   0.11243  96.22382  97.16236
 -7.72575   0.25032   0.25076  96.23638  97.17494
 -7.67559   0.49667   0.49754  96.26129  97.19990
 -7.62542   0.87773   0.87927  96.30533  97.24401
 -7.57525   1.38455   1.38696  96.37478  97.31359
 -7.52508   1.95696   1.96034  96.47296  97.41193
 -7.47492   2.49609   2.50036  96.59818  97.53737
 -7.42475   2.91102   2.91602  96.74422  97.68366
 -7.37458   3.17769   3.18337  96.90363  97.84336
 -7.32441   3.36982   3.37649  97.07269  98.01275
 -7.27425   3.63453   3.64293  97.25502  98.19550
 -7.22408   4.12223   4.13336  97.46182  98.40286
 -7.17391   4.91315   4.92787  97.70830  98.65008
 -7.12375   5.98378   6.00237  98.00849  98.95120
 -7.07358   7.22801   7.24999  98.37110  99.31491
 -7.02341   8.51309   8.53739  98.79818  99.74321
 -6.97324   9.73327   9.75858  99.28647 100.23277
 -6.92308  10.83334  10.85837  99.82995 100.77751
 -6.87291  11.79915  11.82272 100.42188 101.37062
 -6.82274  12.63243  12.65352 101.05561 102.00541
 -6.77258  13.32869  13.34650 101.72428 102.67497
 -6.72241  13.86505  13.87919 102.41985 103.37125
 -6.67224  14.19792  14.20857 103.13212 104.08405
 -6.62207  14.27608  14.28396 103.84831 104.80064
 -6.57191  14.07772  14.08381 104.55455 105.50718
 -6.52174  13.66257  13.66778 105.23996 106.19286
 -6.47157  13.20338  13.20829 105.90234 106.85548
 -6.42140  12.95543  12.96024 106.55228 107.50566
 -6.37124  13.15682  13.16149 107.21232 108.16594
 -6.32107  13.90490  13.90927 107.90989 108.86373
 -6.27090  15.08283  15.08684 108.66655 109.62059
 -6.22074  16.38864  16.39235 109.48873 110.44295
 -6.17057  17.45687  17.46041 110.36449 111.31889
 -6.12040  18.00502  18.00857 111.26775 112.22233
 -6.07023  17.92705  17.93073 112.16710 113.12187
 -6.02007  17.29739  17.30124 113.03486 113.98982
 -5.96990  16.30648  16.31046 113.85291 114.80807
 -5.91973  15.17904  15.18306 114.61440 115.56976
 -5.86957  14.11810  14.12204 115.32267 116.27823
 -5.81940  13.28532  13.28913 115.98916 116.94491
 -5.76923  12.79891  12.80262 116.63124 117.58718
 -5.71906  12.72522  12.72883 117.26963 118.22575
 -5.66890  13.06137  13.06485 117.92488 118.88117
 -5.61873  13.72884  13.73208 118.61362 119.57007
 -5.56856  14.59410  14.59699 119.34577 120.30237
 -5.51839  15.50857  15.51105 120.12379 121.08051
 -5.46823  16.34541  16.34753 120.94379 121.90062
 -5.41806  17.02030  17.02222 121.79765 122.75458
 -5.36789  17.49904  17.50097 122.67553 123.63255
 -5.31773  17.79756  17.79972 123.56839 124.52552
 -5.26756  17.97430  17.97687 124.47011 125.42737
 -5.21739  18.11370  18.11686 125.37882 126.33624
 -5.16722  18.30330  18.30721 126.29705 127.25466
 -5.11706  18.60976  18.61461 127.23065 128.18850
 -5.06689  19.06244  19.06838 128.18696 129.14511
 -5.01672  19.65169  19.65880 129.17283 130.13134
 -4.96656  20.33907  20.34728 130.19318 131.15211
 -4.91639  21.06446  21.07358 131.24993 132.20931
 -4.86622  21.74279  21.75266 132.34070 133.30058
 -4.81605  22.26729  22.27790 133.45779 134.41820
 -4.76589  22.54461  22.55611 134.58879 135.54978
 -4.71572  22.55454  22.56728 135.72029 136.68191
 -4.66555  22.38436  22.39882 136.84325 137.80560
 -4.61538  22.19043  22.20723 137.95648 138.91968
 -4.56522  22.10091  22.12065 139.06522 140.02941
 -4.51505  22.13560  22.15862 140.17571 141.14104
 -4.46488  22.21379  22.23991 141.29011 142.25676
 -4.41472  22.24488  22.27313 142.40607 143.37414
 -4.36455  22.21920  22.24791 143.52075 144.49026
 -4.31438  22.21298  22.24013 144.63511 145.60598
 -4.26421  22.29904  22.32282 145.75379 146.72586
 -4.21405  22.44325  22.46252 146.87971 147.85274
 -4.16388  22.48450  22.49902 148.00769 148.98145
 -4.11371  22.22317  22.23343 149.12257 150.09684
 -4.06355  21.54699  21.55389 150.20352 151.17814
 -4.01338  20.49499  20.49948 151.23170 152.20654
 -3.96321  19.22419  19.22708 152.19612 153.17111
 -3.91304  17.93040  17.93230 153.09564 154.07072
 -3.86288  16.79406  16.79537 153.93815 154.91330
 -3.81271  15.96530  15.96628 154.73909 155.71429
 -3.76254  15.54759  15.54840 155.51907 156.49431
 -3.71237  15.55315  15.55389 156.29933 157.27460
 -3.66221  15.86286  15.86359 157.09512 158.07043
 -3.61204  16.24598  16.24670 157.91014 158.88548
 -3.56187  16.44969  16.45038 158.73537 159.71075
 -3.51171  16.30668  16.30733 159.55343 160.52885
 -3.46154  15.79551  15.79609 160.34585 161.32129
 -3.41137  15.02600  15.02649 161.09966 162.07513
 -3.36120  14.16691  14.16733 161.81038 162.78587
 -3.31104  13.35652  13.35688 162.48044 163.45594
 -3.26087  12.64057  12.64091 163.11458 164.09010
 -3.21070  11.97104  11.97138 163.71513 164.69067
 -3.16054  11.26884  11.26920 164.28046 165.25602
 -3.11037  10.51491  10.51528 164.80796 165.78354
 -3.06020   9.81163   9.81199 165.30019 166.27578
 -3.01003   9.36827   9.36863 165.77017 166.74578
 -2.95987   9.40667   9.40701 166.24207 167.21770
 -2.90970  10.03374  10.03408 166.74544 167.72108
 -2.85953  11.15536  11.15574 167.30507 168.28074
 -2.80936  12.48624  12.48669 167.93147 168.90716
 -2.75920  13.65363  13.65414 168.61644 169.59215
 -2.70903  14.33718  14.33775 169.33569 170.31144
 -2.65886  14.37280  14.37341 170.05674 171.03251
 -2.60870  13.78034  13.78094 170.74806 171.72386
 -2.55853  12.72630  12.72688 171.38650 172.36233
 -2.50836  11.46301  11.46355 171.96157 172.93743
 -2.45819  10.27472  10.27520 172.47702 173.45291
 -2.40803   9.42880   9.42921 172.95004 173.92594
 -2.35786   9.11591   9.11626 173.40736 174.38328
 -2.30769   9.38502   9.38533 173.87818 174.85412
 -2.25753  10.11103  10.11133 174.38542 175.36137
 -2.20736  11.03314  11.03349 174.93892 175.91489
 -2.15719  11.86021  11.86065 175.53392 176.50991
 -2.10702  12.38695  12.38755 176.15533 177.13136
 -2.05686  12.55144  12.55226 176.78501 177.76107
 -2.00669  12.40766  12.40877 177.40746 178.38358
 -1.95652  12.05419  12.05561 178.01219 178.98838
 -1.90635  11.58671  11.58841 178.59346 179.56974
 -1.85619  11.10255  11.10445 179.15045 180.12682
 -1.80602  10.72176  10.72376 179.68833 180.66480
 -1.75585  10.57010  10.57213 180.21860 181.19517
 -1.70569  10.71481  10.71681 180.75613 181.73281
 -1.65552  11.10401  11.10594 181.31319 182.28996
 -1.60535  11.57224  11.57406 181.89374 182.87060
 -1.55518  11.92558  11.92726 182.49201 183.46896
 -1.50502  12.05341  12.05493 183.09670 184.07372
 -1.45485  11.98763  11.98899 183.69808 184.67517
 -1.40468  11.86450  11.86573 184.29329 185.27044
 -1.35452  11.81169  11.81283 184.88585 185.86306
 -1.30435  11.83672  11.83779 185.47967 186.45693
 -1.25418  11.79720  11.79823 186.07150 187.04881
 -1.20401  11.48390  11.48490 186.64761 187.62498
 -1.15385  10.77088  10.77182 187.18796 188.16537
 -1.10368   9.73303   9.73388 187.67624 188.65369
 -1.05351   8.64517   8.64588 188.10994 189.08743
 -1.00334   7.85677   7.85732 188.50409 189.48161
 -0.95318   7.62448   7.62486 188.88659 189.86413
 -0.90301   8.00843   8.00870 189.28835 190.26591
 -0.85284   8.88095   8.88117 189.73389 190.71145
 -0.80268  10.01088  10.01114 190.23610 191.21368
 -0.75251  11.14871  11.14908 190.79540 191.77300
 -0.70234  12.06966  12.07023 191.40091 192.37853
 -0.65217  12.58947  12.59027 192.03248 193.01015
 -0.60201  12.58826  12.58929 192.66400 193.64172
 -0.55184  12.04918  12.05036 193.26848 194.24625
 -0.50167  11.08125  11.08246 193.82439 194.80223
 -0.45151   9.89380   9.89492 194.32074 195.29863
 -0.40134   8.72425   8.72519 194.75841 195.73635
 -0.35117   7.75635   7.75707 195.14752 196.12550
 -0.30100   7.07257   7.07309 195.50233 196.48033
 -0.25084   6.65864   6.65902 195.83638 196.81440
 -0.20067   6.44271   6.44299 196.15959 197.13763
 -0.15050   6.33467   6.33488 196.47738 197.45543
 -0.10033   6.24561   6.24578 196.79071 197.76876
 -0.05017   6.09601   6.09615 197.09653 198.07459
 -0.00000   5.83176   5.83187 197.38909 198.36716
  0.05017   5.44981   5.44988 197.66249 198.64056
  0.10033   5.01401   5.01404 197.91403 198.89210
  0.15050   4.64161   4.64162 198.14689 199.12496
  0.20067   4.45897   4.45897 198.37058 199.34866
  0.25084   4.54244   4.54248 198.59847 199.57654
  0.30100   4.87152   4.87166 198.84286 199.82094
  0.35117   5.32367   5.32398 199.10993 200.08803
  0.40134   5.72378   5.72431 199.39708 200.37520
  0.45151   5.92345   5.92421 199.69424 200.67240
  0.50167   5.85693   5.85780 199.98806 200.96627
  0.55184   5.53786   5.53867 200.26588 201.24413
  0.60201   5.01448   5.01501 200.51745 201.49572
  0.65217   4.33415   4.33423 200.73488 201.71315
  0.70234   3.54713   3.54675 200.91283 201.89108
  0.75251   2.73186   2.73117 201.04988 202.02810
  0.80268   2.00427   2.00348 201.15043 202.12861
  0.85284   1.49614   1.49544 201.22548 202.20363
  0.90301   1.31824   1.31774 201.29162 202.26974
  0.95318   1.52848   1.52817 201.36830 202.34640
  1.00334   2.11125   2.11109 201.47421 202.45231
  1.05351   2.96759   2.96752 201.62309 202.60118
  1.10368   3.92406   3.92403 201.81995 202.79804
  1.15385   4.77157   4.77158 202.05932 203.03742
  1.20401   5.32995   5.33000 202.32671 203.30481
  1.25418   5.51062   5.51073 202.60316 203.58127
  1.30435   5.34480   5.34502 202.87130 203.84941
  1.35452   4.96251   4.96292 203.12025 204.09839
  1.40468   4.53441   4.53508 203.34773 204.32590
  1.45485   4.20628   4.20728 203.55875 204.53697
  1.50502   4.05826   4.05963 203.76234 204.74063
  1.55518   4.10615   4.10790 203.96834 204.94671
  1.60535   4.33531   4.33742 204.18583 205.16431
  1.65552   4.73685   4.73929 204.42346 205.40206
  1.70569   5.32111   5.32383 204.69041 205.66914
  1.75585   6.11030   6.11320 204.99694 205.97583
  1.80602   7.12947   7.13242 205.35461 206.33364
  1.85619   8.40375   8.40665 205.77620 206.75538
  1.90635   9.94647   9.94925 206.27519 207.25450
  1.95652  11.72497  11.72769 206.86340 207.84285
  2.00669  13.62286  13.62565 207.54682 208.52641
  2.05686  15.44111  15.44409 208.32146 209.30120
  2.10702  16.96082  16.96405 209.17233 210.15224
  2.15719  18.03684  18.04033 210.07719 211.05727
  2.20736  18.65794  18.66166 211.01321 211.99348
  2.25753  18.93183  18.93574 211.96297 212.94343
  2.30769  19.01136  19.01540 212.91671 213.89738
  2.35786  19.01412  19.01815 213.87060 214.85147
  2.40803  18.97843  18.98225 214.82270 215.80375
  2.45819  18.86837  18.87173 215.76927 216.75050
  2.50836  18.62038  18.62309 216.70340 217.68476
  2.55853  18.21040  18.21240 217.61697 218.59843
  2.60870  17.70291  17.70430 218.50507 219.48661
  2.65886  17.24100  17.24197 219.37001 220.35159
  2.70903  16.97152  16.97230 220.22142 221.20304
  2.75920  16.95301  16.95377 221.07191 222.05356
  2.80936  17.11542  17.11628 221.93054 222.91224
  2.85953  17.30546  17.30649 222.79871 223.78046
  2.90970  17.38595  17.38716 223.67091 224.65272
  2.95987  17.31430  17.31569 224.53952 225.52140
  3.01003  17.14310  17.14469 225.39954 226.38151
  3.06020  16.95280  16.95463 226.25002 227.23207
  3.11037  16.78487  16.78699 227.09207 228.07423
  3.16054  16.63302  16.63548 227.92650 228.90879
  3.21070  16.48299  16.48581 228.75341 229.73583
  3.26087  16.34510  16.34823 229.57339 230.55598
  3.31104  16.24825  16.25154 230.38852 231.37127
  3.36120  16.21986  16.22310 231.20223 232.18514
  3.41137  16.28795  16.29091 232.01935 233.00241
  3.46154  16.50005  16.50254 232.84711 233.83030
  3.51171  16.92013  16.92204 233.69595 234.67923
  3.56187  17.58306  17.58443 234.57804 235.56139
  3.61204  18.43332  18.43431 235.50279 236.48619
  3.66221  19.29904  19.29986 236.47097 237.45441
  3.71237  19.93563  19.93651 237.47108 238.45457
  3.76254  20.13012  20.13122 238.48096 239.46450
  3.81271  19.81162  19.81305 239.47485 240.45846
  3.86288  19.09387  19.09566 240.43274 241.41644
  3.91304  18.20671  18.20883 241.34612 242.32992
  3.96321  17.35179  17.35419 242.21661 243.20054
  4.01338  16.58466  16.58724 243.04861 244.03267
  4.06355  15.81386  15.81651 243.84195 244.82614
  4.11371  14.91566  14.91824 244.59023 245.57455
  4.16388  13.86598  13.86833 245.28585 246.27028
  4.21405  12.77858  12.78061 245.92691 246.91145
  4.26421  11.82322  11.82497 246.52005 247.50468
  4.31438  11.10231  11.10399 247.07702 248.06173
  4.36455  10.59455  10.59655 247.60852 248.59333
  4.41472  10.20708  10.20987 248.12058 249.10553
  4.46488   9.87990   9.88388 248.61623 249.60138
  4.51505   9.64601   9.65139 249.10014 250.08557
  4.56522   9.59712   9.60377 249.58161 250.56736
  4.61538   9.78813   9.79560 250.07265 251.05878
  4.66555  10.16131  10.16898 250.58241 251.56893
  4.71572  10.54896  10.55628 251.11163 252.09851
  4.76589  10.75334  10.75991 251.65109 252.63830
  4.81605  10.65183  10.65748 252.18546 253.17296
  4.86622  10.26215  10.26682 252.70029 253.68801
  4.91639   9.72563   9.72933 253.18819 254.17611
  4.96656   9.21791   9.22067 253.65063 254.63868
  5.01672   8.84786   8.84978 254.09450 255.08265
      5.01672241     -10.03344482   301      -2.37533478       1.00000000; Z=  6; 2s 2p_y 2p_z 2p_x 
-10.03344   0.00000   0.00000   0.00000   0.00000   0.00000   0.00000   0.00000   0.00000
 -9.98328   0.00000   0.00000   0.00000   0.00000   0.00000   0.00000   0.00000   0.00000
 -9.93311   0.00000   0.00000   0.00000   0.00000   0.00000   0.00000   0.00000   0.00000
 -9.88294   0.00000   0.00000  -0.00000  -0.00000   0.00000   0.00000   0.00000   0.00000
 -9.83278   0.00000   0.00000  -0.00000  -0.00000   0.00000   0.00000   0.00000   0.00000
 -9.78261   0.00000   0.00000  -0.00000   0.00000  -0.00000   0.00000   0.00000   0.00000
 -9.73244   0.00000   0.00000  -0.00000   0.00000  -0.00000  -0.00000   0.00000  -0.00000
 -9.68227   0.00000  -0.00000   0.00000   0.00000  -0.00000   0.00000   0.00000  -0.00000
 -9.63211   0.00000   0.00000   0.00000   0.00000   0.00000   0.00000   0.00000   0.00000
 -9.58194   0.00000   0.00000   0.00000   0.00000   0.00000   0.00000   0.00000   0.00000
 -9.53177   0.00000   0.00000   0.00000   0.00000   0.00000   0.00000   0.00000   0.00000
 -9.48161   0.00000   0.00000   0.00000   0.00000   0.00000   0.00000   0.00000   0.00000
 -9.43144   0.00000   0.00000   0.00000   0.00000   0.00000   0.00000   0.00000   0.00000
 -9.38127   0.00000   0.00000   0.00000   0.00000   0.00000   0.00000   0.00000   0.00000
 -9.33110   0.00000   0.00000   0.00000   0.00000   0.00000   0.00000   0.00000   0.00000
 -9.28094   0.00000   0.00000   0.00000   0.00000   0.00000   0.00000   0.00000   0.00000
 -9.23077   0.00000   0.00000   0.00000   0.00000   0.00000   0.00000   0.00000   0.00000
 -9.18060   0.00000   0.00000   0.00000   0.00000   0.00000   0.00000   0.00000   0.00000
 -9.13043   0.00000   0.00000   0.00000   0.00000   0.00000   0.00000   0.00000   0.00000
 -9.08027   0.00000   0.00000   0.00000   0.00000   0.00000   0.00000   0.00000   0.00000
 -9.03010   0.00000   0.00000   0.00000   0.00000   0.00000   0.00000   0.00000   0.00000
 -8.97993   0.00000   0.00000   0.00000   0.00000   0.00000   0.00000   0.00000   0.00000
 -8.92977   0.00000   0.00000   0.00000   0.00000   0.00000   0.00000   0.00000   0.00000
 -8.87960   0.00000   0.00000   0.00000   0.00000   0.00000   0.00000   0.00000   0.00000
 -8.82943   0.00000   0.00000   0.00000   0.00000   0.00000   0.00000   0.00000   0.00000
 -8.77926   0.00000   0.00000   0.00000   0.00000   0.00000   0.00000   0.00000   0.00000
 -8.72910   0.00000   0.00000   0.00000   0.00000   0.00000   0.00000   0.00000   0.00000
 -8.67893   0.00000   0.00000   0.00000   0.00000  -0.00000   0.00000   0.00000   0.00000
 -8.62876   0.00000  -0.00000  -0.00000   0.00000   0.00000  -0.00000  -0.00000   0.00000
 -8.57860   0.00000  -0.00000  -0.00000   0.00000   0.00000   0.00000   0.00000  -0.00000
 -8.52843  -0.00000  -0.00000   0.00000   0.00000   0.00000   0.00000   0.00000   0.00000
 -8.47826  -0.00000   0.00000   0.00000   0.00000   0.00000   0.00000   0.00000   0.00000
 -8.42809   0.00000   0.00000   0.00000   0.00000   0.00000   0.00000   0.00000   0.00000
 -8.37793   0.00000   0.00000   0.00000   0.00000   0.00000   0.00000   0.00000   0.00000
 -8.32776   0.00000   0.00000   0.00000   0.00000   0.00000   0.00000   0.00000   0.00000
 -8.27759   0.00000   0.00000   0.00000   0.00000   0.00000   0.00000   0.00000   0.00000
 -8.22742   0.00000   0.00000   0.00000   0.00000   0.00000   0.00000   0.00000   0.00000
 -8.17726   0.00000   0.00000   0.00000   0.00000   0.00000   0.00000   0.00000   0.00000
 -8.12709   0.00000   0.00000   0.00000   0.00000   0.00000   0.00000   0.00000   0.00000
 -8.07692   0.00000   0.00000   0.00000   0.00000   0.00000   0.00000   0.00000   0.00000
 -8.02676   0.00000   0.00000   0.00000   0.00000   0.00000   0.00000   0.00000   0.00000
 -7.97659   0.00000   0.00000   0.00000   0.00000   0.00001   0.00001   0.00001   0.00001
 -7.92642   0.00000   0.00000   0.00000   0.00000   0.00005   0.00005   0.00002   0.00002
 -7.87625   0.00000   0.00000   0.00001   0.00001   0.00015   0.00015   0.00006   0.00006
 -7.82609   0.00000   0.00000   0.00004   0.00004   0.00040   0.00040   0.00018   0.00018
 -7.77592   0.00000   0.00000   0.00010   0.00010   0.00095   0.00095   0.00047   0.00047
 -7.72575   0.00001   0.00001   0.00023   0.00023   0.00203   0.00203   0.00107   0.00107
 -7.67559   0.00004   0.00004   0.00047   0.00047   0.00386   0.00386   0.00217   0.00216
 -7.62542   0.00009   0.00009   0.00087   0.00087   0.00656   0.00656   0.00387   0.00386
 -7.57525   0.00018   0.00018   0.00144   0.00144   0.01002   0.01002   0.00613   0.00612
 -7.52508   0.00034   0.00034   0.00215   0.00216   0.01386   0.01386   0.00862   0.00860
 -7.47492   0.00057   0.00057   0.00292   0.00293   0.01769   0.01769   0.01079   0.01077
 -7.42475   0.00084   0.00084   0.00364   0.00365   0.02145   0.02145   0.01212   0.01210
 -7.37458   0.00112   0.00112   0.00428   0.00428   0.02583   0.02583   0.01243   0.01241
 -7.32441   0.00138   0.00138   0.00490   0.00491   0.03220   0.03219   0.01202   0.01200
 -7.27425   0.00161   0.00161   0.00574   0.00575   0.04196   0.04194   0.01161   0.01160
 -7.22408   0.00184   0.00184   0.00714   0.00714   0.05557   0.05553   0.01208   0.01208
 -7.17391   0.00210   0.00210   0.00946   0.00946   0.07167   0.07162   0.01423   0.01424
 -7.12375   0.00243   0.00243   0.01304   0.01305   0.08726   0.08720   0.01862   0.01864
 -7.07358   0.00283   0.00283   0.01818   0.01818   0.09891   0.09883   0.02561   0.02563
 -7.02341   0.00328   0.00329   0.02521   0.02521   0.10449   0.10441   0.03538   0.03540
 -6.97324   0.00380   0.00380   0.03478   0.03478   0.10422   0.10416   0.04796   0.04797
 -6.92308   0.00437   0.00437   0.04796   0.04796   0.10028   0.10024   0.06317   0.06318
 -6.87291   0.00500   0.00500   0.06601   0.06601   0.09536   0.09534   0.08055   0.08055
 -6.82274   0.00567   0.00567   0.08961   0.08961   0.09125   0.09125   0.09911   0.09912
 -6.77258   0.00637   0.00637   0.11775   0.11774   0.08846   0.08848   0.11734   0.11734
 -6.72241   0.00709   0.00709   0.14698   0.14698   0.08672   0.08674   0.13337   0.13337
 -6.67224   0.00785   0.00785   0.17199   0.17199   0.08555   0.08558   0.14555   0.14555
 -6.62207   0.00861   0.00861   0.18749   0.18749   0.08459   0.08462   0.15293   0.15294
 -6.57191   0.00930   0.00930   0.19061   0.19062   0.08376   0.08379   0.15549   0.15549
 -6.52174   0.00982   0.00982   0.18232   0.18234   0.08370   0.08373   0.15383   0.15383
 -6.47157   0.01009   0.01008   0.16689   0.16691   0.08633   0.08635   0.14896   0.14896
 -6.42140   0.01013   0.01012   0.14985   0.14987   0.09481   0.09483   0.14212   0.14211
 -6.37124   0.01004   0.01004   0.13590   0.13592   0.11242   0.11245   0.13483   0.13483
 -6.32107   0.00993   0.00992   0.12777   0.12778   0.14051   0.14053   0.12885   0.12884
 -6.27090   0.00984   0.00984   0.12597   0.12598   0.17665   0.17666   0.12547   0.12547
 -6.22074   0.00981   0.00980   0.12904   0.12904   0.21423   0.21424   0.12474   0.12474
 -6.17057   0.00985   0.00985   0.13401   0.13402   0.24418   0.24419   0.12500   0.12501
 -6.12040   0.01008   0.01008   0.13731   0.13731   0.25832   0.25832   0.12356   0.12357
 -6.07023   0.01065   0.01065   0.13601   0.13601   0.25269   0.25269   0.11810   0.11811
 -6.02007   0.01165   0.01165   0.12904   0.12904   0.22920   0.22919   0.10806   0.10807
 -5.96990   0.01302   0.01302   0.11742   0.11742   0.19441   0.19440   0.09495   0.09497
 -5.91973   0.01448   0.01449   0.10341   0.10341   0.15659   0.15658   0.08160   0.08160
 -5.86957   0.01566   0.01566   0.08926   0.08926   0.12267   0.12266   0.07079   0.07080
 -5.81940   0.01626   0.01627   0.07643   0.07643   0.09680   0.09679   0.06432   0.06433
 -5.76923   0.01626   0.01626   0.06568   0.06567   0.08043   0.08042   0.06254   0.06254
 -5.71906   0.01589   0.01589   0.05741   0.05740   0.07334   0.07334   0.06445   0.06445
 -5.66890   0.01550   0.01551   0.05187   0.05187   0.07451   0.07451   0.06813   0.06814
 -5.61873   0.01539   0.01540   0.04901   0.04901   0.08238   0.08238   0.07131   0.07131
 -5.56856   0.01563   0.01563   0.04829   0.04829   0.09472   0.09472   0.07212   0.07213
 -5.51839   0.01607   0.01607   0.04883   0.04883   0.10840   0.10840   0.06980   0.06981
 -5.46823   0.01646   0.01646   0.04973   0.04973   0.11973   0.11973   0.06486   0.06487
 -5.41806   0.01660   0.01660   0.05039   0.05039   0.12544   0.12543   0.05870   0.05871
 -5.36789   0.01641   0.01641   0.05064   0.05064   0.12392   0.12390   0.05288   0.05289
 -5.31773   0.01600   0.01600   0.05076   0.05077   0.11591   0.11589   0.04858   0.04859
 -5.26756   0.01562   0.01561   0.05132   0.05132   0.10407   0.10405   0.04645   0.04645
 -5.21739   0.01551   0.01550   0.05289   0.05289   0.09153   0.09152   0.04674   0.04674
 -5.16722   0.01583   0.01583   0.05588   0.05588   0.08052   0.08051   0.04948   0.04948
 -5.11706   0.01656   0.01655   0.06039   0.06039   0.07188   0.07187   0.05449   0.05449
 -5.06689   0.01744   0.01744   0.06632   0.06632   0.06549   0.06549   0.06136   0.06135
 -5.01672   0.01812   0.01812   0.07353   0.07353   0.06105   0.06105   0.06944   0.06944
 -4.96656   0.01823   0.01823   0.08186   0.08186   0.05838   0.05837   0.07809   0.07809
 -4.91639   0.01759   0.01759   0.09082   0.09082   0.05728   0.05728   0.08673   0.08672
 -4.86622   0.01631   0.01631   0.09919   0.09919   0.05728   0.05728   0.09476   0.09476
 -4.81605   0.01470   0.01470   0.10506   0.10506   0.05755   0.05755   0.10151   0.10150
 -4.76589   0.01320   0.01320   0.10659   0.10659   0.05729   0.05729   0.10611   0.10611
 -4.71572   0.01216   0.01216   0.10318   0.10318   0.05619   0.05619   0.10785   0.10785
 -4.66555   0.01173   0.01173   0.09619   0.09618   0.05466   0.05466   0.10659   0.10659
 -4.61538   0.01189   0.01189   0.08830   0.08830   0.05353   0.05353   0.10311   0.10310
 -4.56522   0.01246   0.01246   0.08214   0.08214   0.05339   0.05339   0.09895   0.09894
 -4.51505   0.01321   0.01321   0.07885   0.07884   0.05399   0.05398   0.09573   0.09571
 -4.46488   0.01387   0.01387   0.07783   0.07783   0.05420   0.05419   0.09427   0.09425
 -4.41472   0.01424   0.01424   0.07768   0.07767   0.05262   0.05261   0.09410   0.09408
 -4.36455   0.01419   0.01419   0.07731   0.07730   0.04839   0.04839   0.09381   0.09378
 -4.31438   0.01369   0.01370   0.07654   0.07654   0.04176   0.04176   0.09200   0.09198
 -4.26421   0.01288   0.01288   0.07574   0.07574   0.03391   0.03391   0.08825   0.08823
 -4.21405   0.01193   0.01194   0.07508   0.07508   0.02636   0.02636   0.08324   0.08323
 -4.16388   0.01108   0.01109   0.07415   0.07415   0.02022   0.02023   0.07814   0.07814
 -4.11371   0.01054   0.01054   0.07227   0.07227   0.01588   0.01589   0.07385   0.07385
 -4.06355   0.01044   0.01044   0.06914   0.06914   0.01311   0.01312   0.07068   0.07068
 -4.01338   0.01083   0.01083   0.06531   0.06531   0.01141   0.01141   0.06855   0.06855
 -3.96321   0.01159   0.01159   0.06197   0.06197   0.01036   0.01036   0.06735   0.06735
 -3.91304   0.01242   0.01242   0.06037   0.06037   0.00984   0.00984   0.06718   0.06718
 -3.86288   0.01300   0.01300   0.06148   0.06147   0.00998   0.00998   0.06851   0.06851
 -3.81271   0.01306   0.01306   0.06592   0.06591   0.01101   0.01101   0.07234   0.07234
 -3.76254   0.01258   0.01257   0.07420   0.07420   0.01302   0.01303   0.08002   0.08002
 -3.71237   0.01168   0.01168   0.08652   0.08652   0.01575   0.01575   0.09254   0.09254
 -3.66221   0.01059   0.01058   0.10224   0.10224   0.01850   0.01850   0.10953   0.10954
 -3.61204   0.00947   0.00947   0.11940   0.11939   0.02043   0.02043   0.12865   0.12866
 -3.56187   0.00844   0.00844   0.13504   0.13503   0.02090   0.02090   0.14605   0.14605
 -3.51171   0.00756   0.00756   0.14634   0.14634   0.01980   0.01980   0.15784   0.15784
 -3.46154   0.00683   0.00683   0.15192   0.15191   0.01761   0.01761   0.16185   0.16186
 -3.41137   0.00622   0.00622   0.15233   0.15232   0.01515   0.01515   0.15863   0.15863
 -3.36120   0.00564   0.00564   0.14932   0.14932   0.01320   0.01320   0.15099   0.15100
 -3.31104   0.00500   0.00500   0.14434   0.14434   0.01221   0.01221   0.14250   0.14251
 -3.26087   0.00428   0.00428   0.13752   0.13752   0.01223   0.01223   0.13565   0.13565
 -3.21070   0.00353   0.00353   0.12797   0.12797   0.01301   0.01301   0.13091   0.13091
 -3.16054   0.00282   0.00282   0.11521   0.11521   0.01417   0.01417   0.12724   0.12724
 -3.11037   0.00226   0.00226   0.10048   0.10047   0.01551   0.01551   0.12354   0.12354
 -3.06020   0.00189   0.00189   0.08684   0.08684   0.01715   0.01715   0.12004   0.12004
 -3.01003   0.00172   0.00172   0.07797   0.07797   0.01960   0.01961   0.11844   0.11844
 -2.95987   0.00172   0.00172   0.07633   0.07633   0.02363   0.02363   0.12071   0.12071
 -2.90970   0.00185   0.00185   0.08196   0.08196   0.02986   0.02987   0.12717   0.12716
 -2.85953   0.00206   0.00206   0.09257   0.09257   0.03852   0.03852   0.13555   0.13555
 -2.80936   0.00226   0.00226   0.10466   0.10465   0.04922   0.04923   0.14183   0.14183
 -2.75920   0.00240   0.00240   0.11499   0.11499   0.06103   0.06103   0.14229   0.14229
 -2.70903   0.00241   0.00241   0.12153   0.12153   0.07253   0.07253   0.13542   0.13542
 -2.65886   0.00227   0.00227   0.12339   0.12339   0.08212   0.08212   0.12235   0.12235
 -2.60870   0.00199   0.00199   0.12038   0.12038   0.08843   0.08842   0.10575   0.10575
 -2.55853   0.00164   0.00164   0.11270   0.11270   0.09103   0.09102   0.08849   0.08850
 -2.50836   0.00129   0.00129   0.10134   0.10133   0.09112   0.09111   0.07277   0.07278
 -2.45819   0.00098   0.00098   0.08843   0.08843   0.09153   0.09152   0.06013   0.06013
 -2.40803   0.00076   0.00076   0.07712   0.07712   0.09568   0.09568   0.05164   0.05164
 -2.35786   0.00065   0.00065   0.07040   0.07040   0.10589   0.10589   0.04790   0.04790
 -2.30769   0.00062   0.00062   0.06962   0.06962   0.12181   0.12181   0.04860   0.04860
 -2.25753   0.00065   0.00065   0.07375   0.07375   0.14010   0.14010   0.05227   0.05227
 -2.20736   0.00071   0.00071   0.07989   0.07989   0.15546   0.15546   0.05656   0.05656
 -2.15719   0.00077   0.00077   0.08490   0.08490   0.16266   0.16265   0.05904   0.05904
 -2.10702   0.00083   0.00083   0.08693   0.08693   0.15865   0.15865   0.05817   0.05817
 -2.05686   0.00088   0.00088   0.08590   0.08590   0.14389   0.14389   0.05378   0.05378
 -2.00669   0.00093   0.00093   0.08270   0.08270   0.12216   0.12216   0.04695   0.04695