       N       E                     dE             d eps       ncg     rms          rms(c)
DAV:   1     0.402746307889E+04    0.40275E+04   -0.23400E+05  4032   0.133E+03
DAV:   2    -0.189684992224E+03   -0.42171E+04   -0.41060E+04  4284   0.358E+02
DAV:   3    -0.466442878767E+03   -0.27676E+03   -0.27050E+03  4104   0.871E+01
DAV:   4    -0.472898958305E+03   -0.64561E+01   -0.64166E+01  4320   0.136E+01
DAV:   5    -0.472999996471E+03   -0.10104E+00   -0.10102E+00  4032   0.169E+00    0.150E+02
DAV:   6    -0.354152244110E+03    0.11885E+03   -0.40373E+02  3744   0.467E+01    0.406E+01
DAV:   7    -0.364728038805E+03   -0.10576E+02   -0.12832E+02  3996   0.275E+01    0.431E+01
DAV:   8    -0.354610654230E+03    0.10117E+02   -0.18829E+01  3852   0.139E+01    0.181E+01
DAV:   9    -0.360280821173E+03   -0.56702E+01   -0.95239E+00  3816   0.712E+00    0.127E+01
DAV:  10    -0.370671405017E+03   -0.10391E+02   -0.47341E+00  3888   0.521E+00    0.109E+01
DAV:  11    -0.375453515473E+03   -0.47821E+01   -0.21397E+00  3852   0.402E+00    0.912E+00
DAV:  12    -0.386498044719E+03   -0.11045E+02   -0.49631E+00  3708   0.416E+00    0.666E+00
DAV:  13    -0.398969655574E+03   -0.12472E+02   -0.96028E+00  3924   0.514E+00    0.391E+00
DAV:  14    -0.402370268370E+03   -0.34006E+01   -0.24276E+00  3960   0.269E+00    0.231E+00
DAV:  15    -0.403096536779E+03   -0.72627E+00   -0.46021E-01  4068   0.151E+00    0.113E+00
DAV:  16    -0.403553790685E+03   -0.45725E+00   -0.18151E-01  3780   0.896E-01    0.659E-01
DAV:  17    -0.404491665147E+03   -0.93787E+00   -0.74561E-02  3888   0.547E-01    0.404E-01
DAV:  18    -0.405063087324E+03   -0.57142E+00   -0.22148E-02  3888   0.317E-01    0.243E-01
DAV:  19    -0.405235184248E+03   -0.17210E+00   -0.69127E-03  3996   0.187E-01    0.189E-01
DAV:  20    -0.405333498083E+03   -0.98314E-01   -0.48120E-03  3888   0.124E-01    0.125E-01
DAV:  21    -0.405414327657E+03   -0.80830E-01   -0.26206E-03  3780   0.933E-02    0.899E-02
DAV:  22    -0.405473295290E+03   -0.58968E-01   -0.96189E-04  3996   0.661E-02    0.690E-02
DAV:  23    -0.405519214385E+03   -0.45919E-01   -0.33693E-04  3816   0.464E-02    0.508E-02
DAV:  24    -0.405586407197E+03   -0.67193E-01   -0.35881E-04  3708   0.453E-02    0.299E-02
DAV:  25    -0.405604365382E+03   -0.17958E-01   -0.70654E-05  3780   0.216E-02    0.207E-02
DAV:  26    -0.405610012147E+03   -0.56468E-02   -0.17315E-05  3312   0.116E-02    0.147E-02
DAV:  27    -0.405613820550E+03   -0.38084E-02   -0.15323E-05  3312   0.915E-03    0.939E-03
DAV:  28    -0.405614963752E+03   -0.11432E-02   -0.51707E-06  3024   0.598E-03    0.670E-03
DAV:  29    -0.405616150268E+03   -0.11865E-02   -0.69919E-06  3096   0.567E-03    0.501E-03
DAV:  30    -0.405616833642E+03   -0.68337E-03   -0.34320E-06  2808   0.390E-03    0.283E-03
DAV:  31    -0.405617126991E+03   -0.29335E-03   -0.11539E-06  2808   0.204E-03    0.168E-03
DAV:  32    -0.405617370513E+03   -0.24352E-03   -0.94985E-07  2664   0.161E-03    0.116E-03
DAV:  33    -0.405617521393E+03   -0.15088E-03   -0.48952E-07  2664   0.118E-03    0.740E-04
DAV:  34    -0.405617599174E+03   -0.77781E-04   -0.31584E-07  2628   0.952E-04    0.533E-04
DAV:  35    -0.405617640821E+03   -0.41647E-04   -0.20081E-07  2412   0.790E-04    0.311E-04
DAV:  36    -0.405617654590E+03   -0.13768E-04   -0.54367E-08  2268   0.539E-04    0.207E-04
DAV:  37    -0.405617658910E+03   -0.43208E-05   -0.98974E-09  2196   0.323E-04
   1 F= -.41739380E+03 E0= -.41739236E+03  d E =-.289091E-02  mag=     0.0000
