 vasp.5.4.4.18Apr17-6-g9f103f2a35 (build Oct 14 2020 13:51:23) complex          
  
 executed on             LinuxIFC date 2022.02.12  13:32:05
 running on   36 total cores
 distrk:  each k-point on   36 cores,    1 groups
 distr:  one band on NCORES_PER_BAND=   1 cores,   36 groups


--------------------------------------------------------------------------------------------------------


 INCAR:
 POTCAR:    PAW_PBE C 08Apr2002                   
 POTCAR:    PAW_PBE O 08Apr2002                   
 POTCAR:    PAW_PBE Mo_sv 02Feb2006               
 POTCAR:    PAW_PBE Au 04Oct2007                  

 ----------------------------------------------------------------------------- 
|                                                                             |
|           W    W    AA    RRRRR   N    N  II  N    N   GGGG   !!!           |
|           W    W   A  A   R    R  NN   N  II  NN   N  G    G  !!!           |
|           W    W  A    A  R    R  N N  N  II  N N  N  G       !!!           |
|           W WW W  AAAAAA  RRRRR   N  N N  II  N  N N  G  GGG   !            |
|           WW  WW  A    A  R   R   N   NN  II  N   NN  G    G                |
|           W    W  A    A  R    R  N    N  II  N    N   GGGG   !!!           |
|                                                                             |
|      For optimal performance we recommend to set                            |
|        NCORE= 4 - approx SQRT( number of cores)                             |
|      NCORE specifies how many cores store one orbital (NPAR=cpu/NCORE).     |
|      This setting can  greatly improve the performance of VASP for DFT.     |
|      The default,   NCORE=1            might be grossly inefficient         |
|      on modern multi-core architectures or massively parallel machines.     |
|      Do your own testing !!!!                                               |
|      Unfortunately you need to use the default for GW and RPA calculations. |
|      (for HF NCORE is supported but not extensively tested yet)             |
|                                                                             |
 ----------------------------------------------------------------------------- 

 POTCAR:    PAW_PBE C 08Apr2002                   
   VRHFIN =C: s2p2                                                              
   LEXCH  = PE                                                                  
   EATOM  =   147.1560 eV,   10.8157 Ry                                         
                                                                                
   TITEL  = PAW_PBE C 08Apr2002                                                 
   LULTRA =        F    use ultrasoft PP ?                                      
   IUNSCR =        1    unscreen: 0-lin 1-nonlin 2-no                           
   RPACOR =    1.200    partial core radius                                     
   POMASS =   12.011; ZVAL   =    4.000    mass and valenz                      
   RCORE  =    1.500    outmost cutoff radius                                   
   RWIGS  =    1.630; RWIGS  =    0.863    wigner-seitz radius (au A)           
   ENMAX  =  400.000; ENMIN  =  300.000 eV                                      
   ICORE  =        2    local potential                                         
   LCOR   =        T    correct aug charges                                     
   LPAW   =        T    paw PP                                                  
   EAUG   =  644.873                                                            
   DEXC   =    0.000                                                            
   RMAX   =    1.529    core radius for proj-oper                               
   RAUG   =    1.300    factor for augmentation sphere                          
   RDEP   =    1.501    radius for radial grids                                 
   RDEPT  =    1.300    core radius for aug-charge                              
                                                                                
   Atomic configuration                                                         
    4 entries                                                                   
     n  l   j            E        occ.                                          
     1  0  0.50      -273.3789   2.0000                                         
     2  0  0.50       -13.7508   2.0000                                         
     2  1  0.50        -5.2854   2.0000                                         
     3  2  1.50        -5.4423   0.0000                                         
   Description                                                                  
     l       E           TYP  RCUT    TYP  RCUT                                 
     0    -13.7508458     23  1.200                                             
     0     -8.2022199     23  1.200                                             
     1     -5.2854383     23  1.500                                             
     1     34.0145650     23  1.500                                             
     2     -5.4423304      7  1.500                                             
  local pseudopotential read in
  partial core-charges read in
  partial kinetic energy density read in
  atomic valenz-charges read in
  non local Contribution for L=           0  read in
    real space projection operators read in
  non local Contribution for L=           0  read in
    real space projection operators read in
  non local Contribution for L=           1  read in
    real space projection operators read in
  non local Contribution for L=           1  read in
    real space projection operators read in
    PAW grid and wavefunctions read in
 
   number of l-projection  operators is LMAX  =           4
   number of lm-projection operators is LMMAX =           8
 
 POTCAR:    PAW_PBE O 08Apr2002                   
   VRHFIN =O: s2p4                                                              
   LEXCH  = PE                                                                  
   EATOM  =   432.3788 eV,   31.7789 Ry                                         
                                                                                
   TITEL  = PAW_PBE O 08Apr2002                                                 
   LULTRA =        F    use ultrasoft PP ?                                      
   IUNSCR =        1    unscreen: 0-lin 1-nonlin 2-no                           
   RPACOR =    1.200    partial core radius                                     
   POMASS =   16.000; ZVAL   =    6.000    mass and valenz                      
   RCORE  =    1.520    outmost cutoff radius                                   
   RWIGS  =    1.550; RWIGS  =    0.820    wigner-seitz radius (au A)           
   ENMAX  =  400.000; ENMIN  =  300.000 eV                                      
   ICORE  =        2    local potential                                         
   LCOR   =        T    correct aug charges                                     
   LPAW   =        T    paw PP                                                  
   EAUG   =  605.392                                                            
   DEXC   =    0.000                                                            
   RMAX   =    1.553    core radius for proj-oper                               
   RAUG   =    1.300    factor for augmentation sphere                          
   RDEP   =    1.550    radius for radial grids                                 
   RDEPT  =    1.329    core radius for aug-charge                              
                                                                                
   Atomic configuration                                                         
    4 entries                                                                   
     n  l   j            E        occ.                                          
     1  0  0.50      -514.6923   2.0000                                         
     2  0  0.50       -23.9615   2.0000                                         
     2  1  0.50        -9.0305   4.0000                                         
     3  2  1.50        -9.5241   0.0000                                         
   Description                                                                  
     l       E           TYP  RCUT    TYP  RCUT                                 
     0    -23.9615318     23  1.200                                             
     0     -9.5240782     23  1.200                                             
     1     -9.0304911     23  1.520                                             
     1      8.1634956     23  1.520                                             
     2     -9.5240782      7  1.500                                             
  local pseudopotential read in
  partial core-charges read in
  partial kinetic energy density read in
  kinetic energy density of atom read in
  atomic valenz-charges read in
  non local Contribution for L=           0  read in
    real space projection operators read in
  non local Contribution for L=           0  read in
    real space projection operators read in
  non local Contribution for L=           1  read in
    real space projection operators read in
  non local Contribution for L=           1  read in
    real space projection operators read in
    PAW grid and wavefunctions read in
 
   number of l-projection  operators is LMAX  =           4
   number of lm-projection operators is LMMAX =           8
 
 POTCAR:    PAW_PBE Mo_sv 02Feb2006               
   VRHFIN =Mo: 4p5s4d                                                           
   LEXCH  = PE                                                                  
   EATOM  =  1862.2866 eV,  136.8742 Ry                                         
                                                                                
   TITEL  = PAW_PBE Mo_sv 02Feb2006                                             
   LULTRA =        F    use ultrasoft PP ?                                      
   IUNSCR =        1    unscreen: 0-lin 1-nonlin 2-no                           
   RPACOR =    2.200    partial core radius                                     
   POMASS =   95.940; ZVAL   =   14.000    mass and valenz                      
   RCORE  =    2.500    outmost cutoff radius                                   
   RWIGS  =    2.750; RWIGS  =    1.455    wigner-seitz radius (au A)           
   ENMAX  =  242.676; ENMIN  =  182.007 eV                                      
   ICORE  =        3    local potential                                         
   LCOR   =        T    correct aug charges                                     
   LPAW   =        T    paw PP                                                  
   EAUG   =  446.014                                                            
   DEXC   =    0.000                                                            
   RMAX   =    2.563    core radius for proj-oper                               
   RAUG   =    1.300    factor for augmentation sphere                          
   RDEP   =    2.641    radius for radial grids                                 
   RDEPT  =    2.031    core radius for aug-charge                              
                                                                                
   Atomic configuration                                                         
   11 entries                                                                   
     n  l   j            E        occ.                                          
     1  0  0.50    -19819.0341   2.0000                                         
     2  0  0.50     -2799.0127   2.0000                                         
     2  1  1.50     -2502.0276   6.0000                                         
     3  0  0.50      -476.4449   2.0000                                         
     3  1  1.50      -379.1496   6.0000                                         
     3  2  2.50      -220.9367  10.0000                                         
     4  0  0.50       -64.3378   2.0000                                         
     5  0  0.50        -4.0862   1.0000                                         
     4  1  1.50       -38.4773   6.0000                                         
     4  2  2.50        -3.7535   5.0000                                         
     4  3  2.50        -1.3606   0.0000                                         
   Description                                                                  
     l       E           TYP  RCUT    TYP  RCUT                                 
     0    -64.3377829     23  2.100                                             
     0     -4.0861640     23  2.400                                             
     1    -38.4772993     23  2.100                                             
     1     13.6058260     23  2.100                                             
     2     -3.7534941     23  2.400                                             
     2     -5.1140767     23  2.400                                             
     3     -4.0817478     23  2.500                                             
  local pseudopotential read in
  partial core-charges read in
  partial kinetic energy density read in
  atomic valenz-charges read in
  non local Contribution for L=           0  read in
    real space projection operators read in
  non local Contribution for L=           0  read in
    real space projection operators read in
  non local Contribution for L=           1  read in
    real space projection operators read in
  non local Contribution for L=           1  read in
    real space projection operators read in
  non local Contribution for L=           2  read in
    real space projection operators read in
  non local Contribution for L=           2  read in
    real space projection operators read in
    PAW grid and wavefunctions read in
 
   number of l-projection  operators is LMAX  =           6
   number of lm-projection operators is LMMAX =          18
 
 POTCAR:    PAW_PBE Au 04Oct2007                  
   VRHFIN =Au: s1d10                                                            
   LEXCH  = PE                                                                  
   EATOM  =   926.0867 eV,   68.0654 Ry                                         
                                                                                
   TITEL  = PAW_PBE Au 04Oct2007                                                
   LULTRA =        F    use ultrasoft PP ?                                      
   IUNSCR =        1    unscreen: 0-lin 1-nonlin 2-no                           
   RPACOR =    2.330    partial core radius                                     
   POMASS =  196.966; ZVAL   =   11.000    mass and valenz                      
   RCORE  =    2.500    outmost cutoff radius                                   
   RWIGS  =    2.840; RWIGS  =    1.503    wigner-seitz radius (au A)           
   ENMAX  =  229.943; ENMIN  =  172.457 eV                                      
   ICORE  =        3    local potential                                         
   LCOR   =        T    correct aug charges                                     
   LPAW   =        T    paw PP                                                  
   EAUG   =  356.670                                                            
   DEXC   =    0.000                                                            
   RMAX   =    2.562    core radius for proj-oper                               
   RAUG   =    1.300    factor for augmentation sphere                          
   RDEP   =    2.598    radius for radial grids                                 
   RDEPT  =    2.193    core radius for aug-charge                              
                                                                                
   Atomic configuration                                                         
   16 entries                                                                   
     n  l   j            E        occ.                                          
     1  0  0.50    -80748.5001   2.0000                                         
     2  0  0.50    -14244.7466   2.0000                                         
     2  1  1.50    -12310.9591   6.0000                                         
     3  0  0.50     -3362.1768   2.0000                                         
     3  1  1.50     -2801.5463   6.0000                                         
     3  2  2.50     -2203.8206  10.0000                                         
     4  0  0.50      -729.8168   2.0000                                         
     4  1  1.50      -546.0527   6.0000                                         
     4  2  2.50      -325.7302  10.0000                                         
     4  3  3.50       -81.1472  14.0000                                         
     5  0  0.50      -108.3201   2.0000                                         
     5  1  1.50       -59.7479   6.0000                                         
     5  2  2.50        -6.8783  10.0000                                         
     6  0  0.50        -5.7602   1.0000                                         
     6  1  1.50        -6.8029   0.0000                                         
     5  3  2.50        -1.3606   0.0000                                         
   Description                                                                  
     l       E           TYP  RCUT    TYP  RCUT                                 
     2     -6.8782861     23  2.500                                             
     2     -8.2388687     23  2.500                                             
     0     -5.7601759     23  2.500                                             
     0     -0.8493231     23  2.500                                             
     1     -2.7211652     23  2.500                                             
     1     27.2116520     23  2.500                                             
     3     -1.3605826     23  2.500                                             
  local pseudopotential read in
  partial core-charges read in
  partial kinetic energy density read in
  atomic valenz-charges read in
  non local Contribution for L=           2  read in
    real space projection operators read in
  non local Contribution for L=           2  read in
    real space projection operators read in
  non local Contribution for L=           0  read in
    real space projection operators read in
  non local Contribution for L=           0  read in
    real space projection operators read in
  non local Contribution for L=           1  read in
    real space projection operators read in
  non local Contribution for L=           1  read in
    real space projection operators read in
    PAW grid and wavefunctions read in
 
   number of l-projection  operators is LMAX  =           6
   number of lm-projection operators is LMMAX =          18
 

 ----------------------------------------------------------------------------- 
|                                                                             |
|  ADVICE TO THIS USER RUNNING 'VASP/VAMP'   (HEAR YOUR MASTER'S VOICE ...):  |
|                                                                             |
|      You have a (more or less) 'large supercell' and for larger cells       |
|      it might be more efficient to use real space projection opertators     |
|      So try LREAL= Auto  in the INCAR   file.                               |
|      Mind:          For very  accurate calculation you might also keep the  |
|      reciprocal projection scheme          (i.e. LREAL=.FALSE.)             |
|                                                                             |
 ----------------------------------------------------------------------------- 

  PAW_PBE C 08Apr2002                   :
 energy of atom  1       EATOM= -147.1560
 kinetic energy error for atom=    0.0057 (will be added to EATOM!!)
  PAW_PBE O 08Apr2002                   :
 energy of atom  2       EATOM= -432.3788
 kinetic energy error for atom=    0.0168 (will be added to EATOM!!)
  PAW_PBE Mo_sv 02Feb2006               :
 energy of atom  3       EATOM=-1862.2866
 kinetic energy error for atom=    0.0041 (will be added to EATOM!!)
  PAW_PBE Au 04Oct2007                  :
 energy of atom  4       EATOM= -926.0867
 kinetic energy error for atom=    0.0013 (will be added to EATOM!!)
 
 
 POSCAR: 4-MoCMo-O-3-POSCAR                      
  positions in direct lattice
  velocities in cartesian coordinates
 exchange correlation table for  LEXCH =        8
   RHO(1)=    0.500       N(1)  =     2000
   RHO(2)=  100.500       N(2)  =     4000

 VTST: version 3.2, (02/03/18)

 CHAIN: initializing optimizer
 
 OPT: Using VASP Dynamics algorithm
 CHAIN: Read ICHAIN            0
 
 POSCAR: 4-MoCMo-O-3-POSCAR                      
  positions in direct lattice
  velocities in cartesian coordinates
 


--------------------------------------------------------------------------------------------------------


 ion  position               nearest neighbor table
   1  0.999  0.001  0.498-  35 2.13  28 2.13  42 2.14  30 2.16  36 2.16  44 2.16
   2  0.998  0.332  0.499-  37 2.12  33 2.14  43 2.15  42 2.15  28 2.16  29 2.16
   3  0.999  0.664  0.498-  29 2.13  34 2.13  43 2.14  30 2.16  44 2.16  38 2.16
   4  0.336  0.001  0.498-  32 2.13  31 2.13  39 2.14  30 2.16  36 2.16  38 2.16
   5  0.328  0.322  0.498-  36 2.10  31 2.12  28 2.12  40 2.13  37 2.13  45 2.77
   6  0.328  0.672  0.498-  38 2.10  29 2.12  32 2.12  41 2.13  37 2.13  45 2.77
   7  0.668  0.002  0.499-  41 2.12  33 2.14  39 2.15  42 2.15  35 2.16  32 2.16
   8  0.668  0.332  0.499-  40 2.12  33 2.14  43 2.15  39 2.15  31 2.16  34 2.16
   9  0.678  0.672  0.498-  44 2.10  34 2.12  35 2.12  41 2.13  40 2.13  45 2.77
  10  0.000  1.000  0.602-  35 2.03  28 2.03  30 2.06
  11  0.002  0.334  0.602-  33 2.06  28 2.08  29 2.08
  12  0.000  0.667  0.602-  29 2.03  34 2.03  30 2.06
  13  0.333  1.000  0.602-  32 2.03  31 2.03  30 2.06
  14  0.309  0.285  0.607-  31 2.02  28 2.02  45 2.10
  15  0.309  0.691  0.607-  32 2.02  29 2.02  45 2.10
  16  0.666  0.998  0.602-  33 2.06  35 2.08  32 2.08
  17  0.666  0.334  0.602-  33 2.06  31 2.08  34 2.08
  18  0.715  0.691  0.607-  34 2.02  35 2.02  45 2.10
  19  0.998  0.002  0.395-  42 2.05  36 2.06  44 2.06
  20  0.002  0.334  0.396-  43 2.05  42 2.05  37 2.08
  21  0.998  0.663  0.395-  43 2.05  44 2.06  38 2.06
  22  0.337  0.002  0.395-  39 2.05  36 2.06  38 2.06
  23  0.336  0.338  0.398-  40 2.06  37 2.06  36 2.06
  24  0.336  0.664  0.398-  41 2.06  37 2.06  38 2.06
  25  0.666  0.998  0.396-  39 2.05  42 2.05  41 2.08
  26  0.666  0.334  0.396-  43 2.05  39 2.05  40 2.08
  27  0.662  0.664  0.398-  40 2.06  41 2.06  44 2.06
  28  0.111  0.219  0.553-  14 2.02  10 2.03  11 2.08   5 2.12   1 2.13   2 2.16  35 2.85  30 2.85
                            31 2.85  33 2.89  29 2.93  45 2.99  37 3.14  36 3.20  42 3.20
  29  0.111  0.559  0.553-  15 2.02  12 2.03  11 2.08   6 2.12   3 2.13   2 2.16  34 2.85  30 2.85
                            32 2.85  33 2.89  28 2.93  45 2.99  37 3.14  38 3.20  43 3.20
  30  0.111  0.889  0.552-  10 2.06  13 2.06  12 2.06   1 2.16   4 2.16   3 2.16  35 2.85  32 2.85
                            28 2.85  29 2.85  31 2.85  34 2.85  44 3.19  36 3.19  38 3.19
  31  0.441  0.219  0.553-  14 2.02  13 2.03  17 2.08   5 2.12   4 2.13   8 2.16  32 2.85  30 2.85
                            28 2.85  33 2.89  34 2.93  45 2.99  40 3.14  36 3.20  39 3.20
  32  0.441  0.889  0.553-  15 2.02  13 2.03  16 2.08   6 2.12   4 2.13   7 2.16  31 2.85  30 2.85
                            29 2.85  33 2.89  35 2.93  45 2.99  41 3.14  38 3.20  39 3.20
  33  0.778  0.222  0.554-  16 2.06  17 2.06  11 2.06   2 2.14   7 2.14   8 2.14  28 2.89  35 2.89
                            32 2.89  29 2.89  31 2.89  34 2.89  42 3.21  39 3.21  43 3.21
  34  0.781  0.559  0.553-  18 2.02  12 2.03  17 2.08   9 2.12   3 2.13   8 2.16  29 2.85  30 2.85
                            35 2.85  33 2.89  31 2.93  45 2.99  40 3.14  44 3.20  43 3.20
  35  0.781  0.889  0.553-  18 2.02  10 2.03  16 2.08   9 2.12   1 2.13   7 2.16  28 2.85  30 2.85
                            34 2.85  33 2.89  32 2.93  45 2.99  41 3.14  44 3.20  42 3.20
  36  0.221  0.109  0.443-  23 2.06  22 2.06  19 2.06   5 2.10   4 2.16   1 2.16  38 2.85  44 2.85
                            39 2.89  42 2.89  40 2.89  37 2.89  30 3.19  31 3.20  28 3.20
  37  0.222  0.444  0.447-  24 2.06  23 2.06  20 2.08   2 2.12   6 2.13   5 2.13  43 2.88  42 2.88
                            41 2.88  40 2.88  38 2.89  36 2.89  29 3.14  28 3.14
  38  0.221  0.779  0.443-  24 2.06  21 2.06  22 2.06   6 2.10   3 2.16   4 2.16  44 2.85  36 2.85
                            39 2.89  43 2.89  41 2.89  37 2.89  30 3.19  32 3.20  29 3.20
  39  0.557  0.112  0.444-  26 2.05  25 2.05  22 2.05   4 2.14   7 2.15   8 2.15  42 2.85  43 2.85
                            40 2.88  41 2.88  36 2.89  38 2.89  31 3.20  32 3.20  33 3.21
  40  0.556  0.444  0.447-  23 2.06  27 2.06  26 2.08   8 2.12   5 2.13   9 2.13  43 2.88  39 2.88
                            37 2.88  41 2.88  44 2.89  36 2.89  34 3.14  31 3.14
  41  0.556  0.778  0.447-  24 2.06  27 2.06  25 2.08   7 2.12   6 2.13   9 2.13  39 2.88  42 2.88
                            37 2.88  40 2.88  38 2.89  44 2.89  32 3.14  35 3.14
  42  0.888  0.112  0.444-  25 2.05  20 2.05  19 2.05   1 2.14   7 2.15   2 2.15  39 2.85  43 2.85
                            37 2.88  41 2.88  36 2.89  44 2.89  28 3.20  35 3.20  33 3.21
  43  0.888  0.443  0.444-  26 2.05  20 2.05  21 2.05   3 2.14   2 2.15   8 2.15  42 2.85  39 2.85
                            40 2.88  37 2.88  44 2.89  38 2.89  34 3.20  29 3.20  33 3.21
  44  0.891  0.779  0.443-  27 2.06  21 2.06  19 2.06   9 2.10   3 2.16   1 2.16  38 2.85  36 2.85
                            43 2.89  42 2.89  40 2.89  41 2.89  30 3.19  34 3.20  35 3.20
  45  0.444  0.556  0.584-  14 2.10  15 2.10  18 2.10   5 2.77   9 2.77   6 2.77  31 2.99  28 2.99
                            29 2.99  34 2.99  32 2.99  35 2.99
 
  LATTYP: Found a hexagonal cell.
 ALAT       =     8.6346921900
 C/A-ratio  =     2.8952971860
  
  Lattice vectors:
  
 A1 = (   8.6346870000,   0.0000000000,   0.0000000000)
 A2 = (  -4.3173430000,   7.4778640000,   0.0000000000)
 A3 = (   0.0000000000,   0.0000000000,  25.0000000000)


Analysis of symmetry for initial positions (statically):
=====================================================================
 Subroutine PRICEL returns:
 Original cell was already a primitive cell.
 

 Routine SETGRP: Setting up the symmetry group for a 
 hexagonal supercell.


 Subroutine GETGRP returns: Found  6 space group operations
 (whereof  2 operations were pure point group operations)
 out of a pool of 24 trial point group operations.


The static configuration has the point symmetry C_1h.
 The point group associated with its full space group is C_3v.


Analysis of symmetry for dynamics (positions and initial velocities):
=====================================================================
 Subroutine PRICEL returns:
 Original cell was already a primitive cell.
 

 Routine SETGRP: Setting up the symmetry group for a 
 hexagonal supercell.


 Subroutine GETGRP returns: Found  6 space group operations
 (whereof  2 operations were pure point group operations)
 out of a pool of 24 trial point group operations.


The dynamic configuration has the point symmetry C_1h.
 The point group associated with its full space group is C_3v.


Analysis of structural, dynamic, and magnetic symmetry:
=====================================================================
 Subroutine PRICEL returns:
 Original cell was already a primitive cell.
 

 Routine SETGRP: Setting up the symmetry group for a 
 hexagonal supercell.


 Subroutine GETGRP returns: Found  6 space group operations
 (whereof  2 operations were pure point group operations)
 out of a pool of 24 trial point group operations.


The magnetic configuration has the point symmetry C_1h.
 The point group associated with its full space group is C_3v.


 Subroutine INISYM returns: Found  6 space group operations
 (whereof  2 operations are pure point group operations),
 and found     1 'primitive' translations

 
 
 KPOINTS: Auto                                    

Automatic generation of k-mesh.
Space group operators:
 irot       det(A)        alpha          n_x          n_y          n_z        tau_x        tau_y        tau_z
    1     1.000000     0.000001     1.000000     0.000000     0.000000     0.000000     0.000000     0.000000
    2    -1.000000   180.000000    -0.500000    -0.866025     0.000000     0.000000     0.000000     0.000000
    3     1.000000   120.000000     0.000000     0.000000    -1.000000     0.000000     0.666666     0.000000
    4     1.000000   120.000000     0.000000     0.000000     1.000000     0.333333     0.000000     0.000000
    5    -1.000000   180.000000     1.000000    -0.000000     0.000000     0.333333     0.000000     0.000000
    6    -1.000000   179.999999     0.500000    -0.866025     0.000000     0.000000     0.666666     0.000000
 
 Subroutine IBZKPT returns following result:
 ===========================================
 
 Found      3 irreducible k-points:
 
 Following reciprocal coordinates:
            Coordinates               Weight
  0.000000  0.000000  0.000000      1.000000
  0.333333 -0.000000  0.000000      6.000000
  0.333333  0.333333  0.000000      2.000000
 
 Following cartesian coordinates:
            Coordinates               Weight
  0.000000  0.000000  0.000000      1.000000
  0.038604  0.022288  0.000000      6.000000
  0.038604  0.066864  0.000000      2.000000
 


--------------------------------------------------------------------------------------------------------




 Dimension of arrays:
   k-points           NKPTS =      3   k-points in BZ     NKDIM =      3   number of bands    NBANDS=    288
   number of dos      NEDOS =    301   number of ions     NIONS =     45
   non local maximal  LDIM  =      6   non local SUM 2l+1 LMDIM =     18
   total plane-waves  NPLWV = 437400
   max r-space proj   IRMAX =      1   max aug-charges    IRDMAX=  16768
   dimension x,y,z NGX =    54 NGY =   54 NGZ =  150
   dimension x,y,z NGXF=   108 NGYF=  108 NGZF=  300
   support grid    NGXF=   108 NGYF=  108 NGZF=  300
   ions per type =               9  18  17   1
   NGX,Y,Z   is equivalent  to a cutoff of  10.40, 10.40,  9.97 a.u.
   NGXF,Y,Z  is equivalent  to a cutoff of  20.79, 20.79, 19.95 a.u.

 SYSTEM =  unknown system                          
 POSCAR =  4-MoCMo-O-3-POSCAR                      

 Startparameter for this run:
   NWRITE =      2    write-flag & timer
   PREC   = normal    normal or accurate (medium, high low for compatibility)
   ISTART =      0    job   : 0-new  1-cont  2-samecut
   ICHARG =      2    charge: 1-file 2-atom 10-const
   ISPIN  =      2    spin polarized calculation?
   LNONCOLLINEAR =      F non collinear calculations
   LSORBIT =      F    spin-orbit coupling
   INIWAV =      1    electr: 0-lowe 1-rand  2-diag
   LASPH  =      F    aspherical Exc in radial PAW
   METAGGA=      F    non-selfconsistent MetaGGA calc.

 Electronic Relaxation 1
   ENCUT  =  600.0 eV  44.10 Ry    6.64 a.u.  17.25 17.25 49.93*2*pi/ulx,y,z
   ENINI  =  600.0     initial cutoff
   ENAUG  =  644.9 eV  augmentation charge cutoff
   NELM   =    200;   NELMIN=  5; NELMDL= -5     # of ELM steps 
   EDIFF  = 0.1E-04   stopping-criterion for ELM
   LREAL  =      F    real-space projection
   NLSPLINE    = F    spline interpolate recip. space projectors
   LCOMPAT=      F    compatible to vasp.4.4
   GGA_COMPAT  = T    GGA compatible to vasp.4.4-vasp.4.6
   LMAXPAW     = -100 max onsite density
   LMAXMIX     =    2 max onsite mixed and CHGCAR
   VOSKOWN=      0    Vosko Wilk Nusair interpolation
   ROPT   =    0.00000   0.00000   0.00000   0.00000
 Ionic relaxation
   EDIFFG = -.1E-01   stopping-criterion for IOM
   NSW    =      1    number of steps for IOM
   NBLOCK =      1;   KBLOCK =      1    inner block; outer block 
   IBRION =     -1    ionic relax: 0-MD 1-quasi-New 2-CG
   NFREE  =      0    steps in history (QN), initial steepest desc. (CG)
   ISIF   =      2    stress and relaxation
   IWAVPR =     10    prediction:  0-non 1-charg 2-wave 3-comb
   ISYM   =      2    0-nonsym 1-usesym 2-fastsym
   LCORR  =      T    Harris-Foulkes like correction to forces

   POTIM  = 0.5000    time-step for ionic-motion
   TEIN   =    0.0    initial temperature
   TEBEG  =    0.0;   TEEND  =   0.0 temperature during run
   SMASS  =  -3.00    Nose mass-parameter (am)
   estimated Nose-frequenzy (Omega)   =  0.10E-29 period in steps =****** mass=  -0.170E-26a.u.
   SCALEE = 1.0000    scale energy and forces
   NPACO  =    256;   APACO  = 16.0  distance and # of slots for P.C.
   PSTRESS=    0.0 pullay stress

  Mass of Ions in am
   POMASS =  12.01 16.00 95.94196.97
  Ionic Valenz
   ZVAL   =   4.00  6.00 14.00 11.00
  Atomic Wigner-Seitz radii
   RWIGS  =  -1.00 -1.00 -1.00 -1.00
  virtual crystal weights 
   VCA    =   1.00  1.00  1.00  1.00
   NELECT =     393.0000    total number of electrons
   NUPDOWN=      -1.0000    fix difference up-down

 DOS related values:
   EMIN   =  10.00;   EMAX   =-10.00  energy-range for DOS
   EFERMI =   0.00
   ISMEAR =     0;   SIGMA  =   0.02  broadening in eV -4-tet -1-fermi 0-gaus

 Electronic relaxation 2 (details)
   IALGO  =     38    algorithm
   LDIAG  =      T    sub-space diagonalisation (order eigenvalues)
   LSUBROT=      F    optimize rotation matrix (better conditioning)
   TURBO    =      0    0=normal 1=particle mesh
   IRESTART =      0    0=no restart 2=restart with 2 vectors
   NREBOOT  =      0    no. of reboots
   NMIN     =      0    reboot dimension
   EREF     =   0.00    reference energy to select bands
   IMIX   =      4    mixing-type and parameters
     AMIX     =   0.40;   BMIX     =  1.00
     AMIX_MAG =   1.60;   BMIX_MAG =  1.00
     AMIN     =   0.10
     WC   =   100.;   INIMIX=   1;  MIXPRE=   1;  MAXMIX= -45

 Intra band minimization:
   WEIMIN = 0.0000     energy-eigenvalue tresh-hold
   EBREAK =  0.87E-08  absolut break condition
   DEPER  =   0.30     relativ break condition  

   TIME   =   0.40     timestep for ELM

  volume/ion in A,a.u.               =      35.87       242.07
  Fermi-wavevector in a.u.,A,eV,Ry     =   1.022235  1.931745 14.217618  1.044965
  Thomas-Fermi vector in A             =   2.155904
 
 Write flags
   LWAVE        =      T    write WAVECAR
   LDOWNSAMPLE  =      F    k-point downsampling of WAVECAR
   LCHARG       =      T    write CHGCAR
   LVTOT        =      F    write LOCPOT, total local potential
   LVHAR        =      F    write LOCPOT, Hartree potential only
   LELF         =      F    write electronic localiz. function (ELF)
   LORBIT       =     11    0 simple, 1 ext, 2 COOP (PROOUT), +10 PAW based schemes


 Dipole corrections
   LMONO  =      F    monopole corrections only (constant potential shift)
   LDIPOL =      F    correct potential (dipole corrections)
   IDIPOL =      0    1-x, 2-y, 3-z, 4-all directions 
   EPSILON=  1.0000000 bulk dielectric constant

 Exchange correlation treatment:
   GGA     =    --    GGA type
   LEXCH   =     8    internal setting for exchange type
   VOSKOWN=      0    Vosko Wilk Nusair interpolation
   LHFCALC =     F    Hartree Fock is set to
   LHFONE  =     F    Hartree Fock one center treatment
   AEXX    =    0.0000 exact exchange contribution

 Linear response parameters
   LEPSILON=     F    determine dielectric tensor
   LRPA    =     F    only Hartree local field effects (RPA)
   LNABLA  =     F    use nabla operator in PAW spheres
   LVEL    =     F    velocity operator in full k-point grid
   LINTERFAST=   F  fast interpolation
   KINTER  =     0    interpolate to denser k-point grid
   CSHIFT  =0.1000    complex shift for real part using Kramers Kronig
   OMEGAMAX=  -1.0    maximum frequency
   DEG_THRESHOLD= 0.2000000E-02 threshold for treating states as degnerate
   RTIME   =   -0.100 relaxation time in fs
  (WPLASMAI=    0.000 imaginary part of plasma frequency in eV, 0.658/RTIME)
   DFIELD  = 0.0000000 0.0000000 0.0000000 field for delta impulse in time
 
 Orbital magnetization related:
   ORBITALMAG=     F  switch on orbital magnetization
   LCHIMAG   =     F  perturbation theory with respect to B field
   DQ        =  0.001000  dq finite difference perturbation B field
   LLRAUG    =     F  two centre corrections for induced B field



--------------------------------------------------------------------------------------------------------


 Static calculation
 charge density and potential will be updated during run
 spin polarized calculation
 Variant of blocked Davidson
 Davidson routine will perform the subspace rotation
 perform sub-space diagonalisation
    after iterative eigenvector-optimisation
 modified Broyden-mixing scheme, WC =      100.0
 initial mixing is a Kerker type mixing with AMIX =  0.4000 and BMIX =      1.0000
 Hartree-type preconditioning will be used
 using additional bands           91
 reciprocal scheme for non local part
 use partial core corrections
 calculate Harris-corrections to forces 
   (improved forces if not selfconsistent)
 use gradient corrections 
 use of overlap-Matrix (Vanderbilt PP)
 Gauss-broadening in eV      SIGMA  =   0.02


--------------------------------------------------------------------------------------------------------


  energy-cutoff  :      600.00
  volume of cell :     1614.23
      direct lattice vectors                 reciprocal lattice vectors
     8.634687000  0.000000000  0.000000000     0.115811957  0.066864006  0.000000000
    -4.317343000  7.477864000  0.000000000     0.000000000  0.133728027  0.000000000
     0.000000000  0.000000000 25.000000000     0.000000000  0.000000000  0.040000000

  length of vectors
     8.634687000  8.634691690 25.000000000     0.133728100  0.133728027  0.040000000


 
 k-points in units of 2pi/SCALE and weight: Auto                                    
   0.00000000  0.00000000  0.00000000       0.111
   0.03860399  0.02228800  0.00000000       0.667
   0.03860399  0.06686401  0.00000000       0.222
 
 k-points in reciprocal lattice and weights: Auto                                    
   0.00000000  0.00000000  0.00000000       0.111
   0.33333333 -0.00000000  0.00000000       0.667
   0.33333333  0.33333333  0.00000000       0.222
 
 position of ions in fractional coordinates (direct lattice) 
   0.99888900  0.00111100  0.49825100
   0.99830900  0.33248800  0.49934800
   0.99888900  0.66444500  0.49825100
   0.33555500  0.00111100  0.49825100
   0.32756500  0.32179700  0.49831000
   0.32756500  0.67243500  0.49830900
   0.66751200  0.00169100  0.49934800
   0.66751200  0.33248800  0.49934800
   0.67820300  0.67243500  0.49831000
   0.00022600  0.99977400  0.60152000
   0.00162000  0.33414300  0.60209100
   0.00022600  0.66711900  0.60152000
   0.33288100  0.99977400  0.60152000
   0.30919600  0.28505800  0.60735000
   0.30919600  0.69080500  0.60735000
   0.66585700  0.99838000  0.60209000
   0.66585700  0.33414300  0.60209100
   0.71494200  0.69080400  0.60735000
   0.99821400  0.00178600  0.39484400
   0.00173900  0.33420300  0.39611300
   0.99821400  0.66309400  0.39484400
   0.33690600  0.00178600  0.39484400
   0.33590200  0.33846900  0.39771200
   0.33590100  0.66409900  0.39771200
   0.66579700  0.99826100  0.39611300
   0.66579700  0.33420300  0.39611400
   0.66153100  0.66409800  0.39771200
   0.11108100  0.21892600  0.55331300
   0.11108100  0.55882200  0.55331300
   0.11111100  0.88888900  0.55235100
   0.44117800  0.21892600  0.55331300
   0.44117800  0.88891900  0.55331300
   0.77777800  0.22222200  0.55402200
   0.78107400  0.55882200  0.55331300
   0.78107400  0.88891900  0.55331300
   0.22128600  0.10923800  0.44331600
   0.22191800  0.44429300  0.44711900
   0.22128600  0.77871400  0.44331600
   0.55738700  0.11202700  0.44390100
   0.55570800  0.44429200  0.44711900
   0.55570700  0.77808200  0.44711900
   0.88797300  0.11202700  0.44390100
   0.88797300  0.44261300  0.44390100
   0.89076200  0.77871400  0.44331600
   0.44444400  0.55555500  0.58412900
 
 position of ions in cartesian coordinates  (Angst):
   8.62029729  0.00830791 12.45627500
   7.18462100  2.48630005 12.48370000
   5.75645689  4.96862935 12.45627500
   2.89261583  0.00830791 12.45627500
   1.43911322  2.40635420 12.45775000
  -0.07471129  5.02837748 12.45772500
   5.75645656  0.01264507 12.48370000
   4.32829245  2.48630005 12.48370000
   2.95293809  5.02837748 12.45775000
  -4.31441584  7.47617400 15.03800000
  -1.42862175  2.49867591 15.05227500
  -2.87823011  4.98862515 15.03800000
  -1.44204404  7.47617400 15.03800000
   1.43911752  2.13162496 15.18375000
  -0.31263145  5.16574584 15.18375000
   1.43911788  7.46574986 15.05225000
   4.30685684  2.49867591 15.05227500
   3.19086258  5.16573836 15.18375000
   8.61155467  0.01335547  9.87110000
  -1.42785326  2.49912458  9.90282500
   5.75646121  4.95852675  9.87110000
   2.90136708  0.01335547  9.87110000
   1.43912186  2.53102515  9.94280000
   0.03325683  4.96604200  9.94280000
   1.43911356  7.46485999  9.90282500
   4.30607972  2.49912458  9.90285000
   2.84497427  4.96603453  9.94280000
   0.01397103  1.63709885 13.83282500
  -1.45347658  4.17879492 13.83282500
  -2.87822999  6.64699105 13.80877500
   2.86425531  1.63709885 13.83282500
  -0.02833428  6.64721539 13.83282500
   5.75646099  1.66174589 13.85055000
   4.33170326  4.17879492 13.83282500
   2.90656129  6.64721539 13.83282500
   1.43911743  0.81686691 11.08290000
  -0.00197280  3.32236263 11.17797500
  -1.45124009  5.82311739 11.08290000
   4.32920330  0.83772267 11.09752500
   2.88020369  3.32235515 11.17797500
   1.43910913  5.81839138 11.17797500
   7.18370994  0.83772267 11.09752500
   5.75645678  3.30979982 11.09752500
   4.32947562  5.82311739 11.08290000
   1.43911334  4.15436473 14.60322500
 


--------------------------------------------------------------------------------------------------------


 k-point  1 :   0.0000 0.0000 0.0000  plane waves:   53859
 k-point  2 :   0.3333-0.0000 0.0000  plane waves:   53872
 k-point  3 :   0.3333 0.3333 0.0000  plane waves:   53811

 maximum and minimum number of plane-waves per node :     53872    53811

 maximum number of plane-waves:     53872
 maximum index in each direction: 
   IXMAX=   17   IYMAX=   17   IZMAX=   49
   IXMIN=  -17   IYMIN=  -17   IZMIN=  -49


 serial   3D FFT for wavefunctions
 parallel 3D FFT for charge:
    minimum data exchange during FFTs selected (reduces bandwidth)


 total amount of memory used by VASP MPI-rank0   254671. kBytes
=======================================================================

   base      :      30000. kBytes
   nonl-proj :     131927. kBytes
   fftplans  :       5074. kBytes
   grid      :      44468. kBytes
   one-center:       1399. kBytes
   wavefun   :      41803. kBytes
 
     INWAV:  cpu time    0.0000: real time    0.0000
 Broyden mixing: mesh for mixing (old mesh)
   NGX = 35   NGY = 35   NGZ = 99
  (NGX  =108   NGY  =108   NGZ  =300)
  gives a total of 121275 points

 initial charge density was supplied:
 charge density of overlapping atoms calculated
 number of electron     393.0000000 magnetization      45.0000000
 keeping initial charge density in first step


--------------------------------------------------------------------------------------------------------


 Maximum index for augmentation-charges          363 (set IRDMAX)


--------------------------------------------------------------------------------------------------------


 First call to EWALD:  gamma=   0.151
 Maximum number of real-space cells 4x 4x 2
 Maximum number of reciprocal cells 2x 2x 5

    FEWALD:  cpu time    0.0025: real time    0.0028


--------------------------------------- Iteration      1(   1)  ---------------------------------------


    POTLOK:  cpu time    0.1635: real time    0.1995
    SETDIJ:  cpu time    0.0118: real time    0.0119
     EDDAV:  cpu time   49.4229: real time   49.4658
       DOS:  cpu time    0.0052: real time    0.0053
    --------------------------------------------
      LOOP:  cpu time   49.6035: real time   49.6826

 eigenvalue-minimisations  :  4032
 total energy-change (2. order) : 0.4027463E+04  (-0.2339962E+05)
 number of electron     393.0000000 magnetization      45.0000000
 augmentation part      393.0000000 magnetization      45.0000000

 Free energy of the ion-electron system (eV)
  ---------------------------------------------------
  alpha Z        PSCENC =       717.07591129
  Ewald energy   TEWEN  =    220242.39178686
  -Hartree energ DENC   =   -256907.07535871
  -exchange      EXHF   =         0.00000000
  -V(xc)+E(xc)   XCENC  =      1777.36773384
  PAW double counting   =     33546.73958790   -33246.78266895
  entropy T*S    EENTRO =        -0.00316090
  eigenvalues    EBANDS =     -3794.00728295
  atomic energy  EATOM  =     41691.75653052
  Solvation  Ediel_sol  =         0.00000000
  ---------------------------------------------------
  free energy    TOTEN  =      4027.46307889 eV

  energy without entropy =     4027.46623980  energy(sigma->0) =     4027.46465935


--------------------------------------------------------------------------------------------------------




--------------------------------------- Iteration      1(   2)  ---------------------------------------


     EDDAV:  cpu time   51.9147: real time   51.9775
       DOS:  cpu time    0.0051: real time    0.0050
    --------------------------------------------
      LOOP:  cpu time   51.9198: real time   51.9826

 eigenvalue-minimisations  :  4284
 total energy-change (2. order) :-0.4217148E+04  (-0.4106032E+04)
 number of electron     393.0000000 magnetization      45.0000000
 augmentation part      393.0000000 magnetization      45.0000000

 Free energy of the ion-electron system (eV)
  ---------------------------------------------------
  alpha Z        PSCENC =       717.07591129
  Ewald energy   TEWEN  =    220242.39178686
  -Hartree energ DENC   =   -256907.07535871
  -exchange      EXHF   =         0.00000000
  -V(xc)+E(xc)   XCENC  =      1777.36773384
  PAW double counting   =     33546.73958790   -33246.78266895
  entropy T*S    EENTRO =        -0.00672092
  eigenvalues    EBANDS =     -8011.15179406
  atomic energy  EATOM  =     41691.75653052
  Solvation  Ediel_sol  =         0.00000000
  ---------------------------------------------------
  free energy    TOTEN  =      -189.68499222 eV

  energy without entropy =     -189.67827131  energy(sigma->0) =     -189.68163177


--------------------------------------------------------------------------------------------------------




--------------------------------------- Iteration      1(   3)  ---------------------------------------


     EDDAV:  cpu time   50.1241: real time   50.1721
       DOS:  cpu time    0.0053: real time    0.0053
    --------------------------------------------
      LOOP:  cpu time   50.1294: real time   50.1774

 eigenvalue-minimisations  :  4104
 total energy-change (2. order) :-0.2767579E+03  (-0.2704974E+03)
 number of electron     393.0000000 magnetization      45.0000000
 augmentation part      393.0000000 magnetization      45.0000000

 Free energy of the ion-electron system (eV)
  ---------------------------------------------------
  alpha Z        PSCENC =       717.07591129
  Ewald energy   TEWEN  =    220242.39178686
  -Hartree energ DENC   =   -256907.07535871
  -exchange      EXHF   =         0.00000000
  -V(xc)+E(xc)   XCENC  =      1777.36773384
  PAW double counting   =     33546.73958790   -33246.78266895
  entropy T*S    EENTRO =        -0.00343846
  eigenvalues    EBANDS =     -8287.91296306
  atomic energy  EATOM  =     41691.75653052
  Solvation  Ediel_sol  =         0.00000000
  ---------------------------------------------------
  free energy    TOTEN  =      -466.44287877 eV

  energy without entropy =     -466.43944031  energy(sigma->0) =     -466.44115954


--------------------------------------------------------------------------------------------------------




--------------------------------------- Iteration      1(   4)  ---------------------------------------


     EDDAV:  cpu time   52.2430: real time   52.2991
       DOS:  cpu time    0.0053: real time    0.0053
    --------------------------------------------
      LOOP:  cpu time   52.2483: real time   52.3044

 eigenvalue-minimisations  :  4320
 total energy-change (2. order) :-0.6456080E+01  (-0.6416625E+01)
 number of electron     393.0000000 magnetization      45.0000000
 augmentation part      393.0000000 magnetization      45.0000000

 Free energy of the ion-electron system (eV)
  ---------------------------------------------------
  alpha Z        PSCENC =       717.07591129
  Ewald energy   TEWEN  =    220242.39178686
  -Hartree energ DENC   =   -256907.07535871
  -exchange      EXHF   =         0.00000000
  -V(xc)+E(xc)   XCENC  =      1777.36773384
  PAW double counting   =     33546.73958790   -33246.78266895
  entropy T*S    EENTRO =        -0.00349520
  eigenvalues    EBANDS =     -8294.36898586
  atomic energy  EATOM  =     41691.75653052
  Solvation  Ediel_sol  =         0.00000000
  ---------------------------------------------------
  free energy    TOTEN  =      -472.89895830 eV

  energy without entropy =     -472.89546311  energy(sigma->0) =     -472.89721071


--------------------------------------------------------------------------------------------------------




--------------------------------------- Iteration      1(   5)  ---------------------------------------


     EDDAV:  cpu time   49.5009: real time   49.5500
       DOS:  cpu time    0.0053: real time    0.0053
    CHARGE:  cpu time    0.6293: real time    0.6297
    MIXING:  cpu time    0.0044: real time    0.0045
    --------------------------------------------
      LOOP:  cpu time   50.1399: real time   50.1895

 eigenvalue-minimisations  :  4032
 total energy-change (2. order) :-0.1010382E+00  (-0.1010202E+00)
 number of electron     393.0000089 magnetization      40.9652210
 augmentation part       53.0209076 magnetization      39.2463240

 Broyden mixing:
  rms(total) = 0.15032E+02    rms(broyden)= 0.15032E+02
  rms(prec ) = 0.15185E+02
  weight for this iteration     100.00

 Free energy of the ion-electron system (eV)
  ---------------------------------------------------
  alpha Z        PSCENC =       717.07591129
  Ewald energy   TEWEN  =    220242.39178686
  -Hartree energ DENC   =   -256907.07535871
  -exchange      EXHF   =         0.00000000
  -V(xc)+E(xc)   XCENC  =      1777.36773384
  PAW double counting   =     33546.73958790   -33246.78266895
  entropy T*S    EENTRO =        -0.00349557
  eigenvalues    EBANDS =     -8294.47002365
  atomic energy  EATOM  =     41691.75653052
  Solvation  Ediel_sol  =         0.00000000
  ---------------------------------------------------
  free energy    TOTEN  =      -472.99999647 eV

  energy without entropy =     -472.99650090  energy(sigma->0) =     -472.99824868


--------------------------------------------------------------------------------------------------------




--------------------------------------- Iteration      1(   6)  ---------------------------------------


    POTLOK:  cpu time    0.1546: real time    0.1637
    SETDIJ:  cpu time    0.0116: real time    0.0116
     EDDAV:  cpu time   46.7889: real time   46.8331
       DOS:  cpu time    0.0045: real time    0.0045
    CHARGE:  cpu time    0.6201: real time    0.6204
    MIXING:  cpu time    0.0046: real time    0.0046
    --------------------------------------------
      LOOP:  cpu time   47.5842: real time   47.6380

 eigenvalue-minimisations  :  3744
 total energy-change (2. order) : 0.1188478E+03  (-0.4037289E+02)
 number of electron     393.0000039 magnetization      37.6889824
 augmentation part       59.3903094 magnetization      32.4331862

 Broyden mixing:
  rms(total) = 0.40633E+01    rms(broyden)= 0.40627E+01
  rms(prec ) = 0.42384E+01
  weight for this iteration     100.00

 eigenvalues of (default mixing * dielectric matrix)
  average eigenvalue GAMMA=   0.9509
  0.9509

 Free energy of the ion-electron system (eV)
  ---------------------------------------------------
  alpha Z        PSCENC =       717.07591129
  Ewald energy   TEWEN  =    220242.39178686
  -Hartree energ DENC   =   -256494.50822333
  -exchange      EXHF   =         0.00000000
  -V(xc)+E(xc)   XCENC  =      1812.96665417
  PAW double counting   =     39469.71667242   -39244.95793027
  entropy T*S    EENTRO =        -0.00263843
  eigenvalues    EBANDS =     -8548.59100732
  atomic energy  EATOM  =     41691.75653052
  Solvation  Ediel_sol  =         0.00000000
  ---------------------------------------------------
  free energy    TOTEN  =      -354.15224411 eV

  energy without entropy =     -354.14960568  energy(sigma->0) =     -354.15092489


--------------------------------------------------------------------------------------------------------




--------------------------------------- Iteration      1(   7)  ---------------------------------------


    POTLOK:  cpu time    0.1480: real time    0.1493
    SETDIJ:  cpu time    0.0116: real time    0.0116
     EDDAV:  cpu time   49.2186: real time   49.2643
       DOS:  cpu time    0.0026: real time    0.0026
    CHARGE:  cpu time    0.6210: real time    0.6214
    MIXING:  cpu time    0.0048: real time    0.0048
    --------------------------------------------
      LOOP:  cpu time   50.0065: real time   50.0539

 eigenvalue-minimisations  :  3996
 total energy-change (2. order) :-0.1057579E+02  (-0.1283233E+02)
 number of electron     393.0000073 magnetization      33.6051827
 augmentation part       56.4270065 magnetization      30.2321388

 Broyden mixing:
  rms(total) = 0.43097E+01    rms(broyden)= 0.43096E+01
  rms(prec ) = 0.43997E+01
  weight for this iteration     100.00

 eigenvalues of (default mixing * dielectric matrix)
  average eigenvalue GAMMA=   1.0205
  1.4681  0.5729

 Free energy of the ion-electron system (eV)
  ---------------------------------------------------
  alpha Z        PSCENC =       717.07591129
  Ewald energy   TEWEN  =    220242.39178686
  -Hartree energ DENC   =   -256883.93365900
  -exchange      EXHF   =         0.00000000
  -V(xc)+E(xc)   XCENC  =      1802.25191615
  PAW double counting   =     42236.97434481   -41989.44021182
  entropy T*S    EENTRO =        -0.00000336
  eigenvalues    EBANDS =     -8181.80465426
  atomic energy  EATOM  =     41691.75653052
  Solvation  Ediel_sol  =         0.00000000
  ---------------------------------------------------
  free energy    TOTEN  =      -364.72803881 eV

  energy without entropy =     -364.72803545  energy(sigma->0) =     -364.72803713


--------------------------------------------------------------------------------------------------------




--------------------------------------- Iteration      1(   8)  ---------------------------------------


    POTLOK:  cpu time    0.1482: real time    0.1568
    SETDIJ:  cpu time    0.0115: real time    0.0116
     EDDAV:  cpu time   47.7606: real time   47.8043
       DOS:  cpu time    0.0028: real time    0.0027
    CHARGE:  cpu time    0.6281: real time    0.6283
    MIXING:  cpu time    0.0049: real time    0.0049
    --------------------------------------------
      LOOP:  cpu time   48.5559: real time   48.6086

 eigenvalue-minimisations  :  3852
 total energy-change (2. order) : 0.1011738E+02  (-0.1882862E+01)
 number of electron     393.0000063 magnetization      30.2456184
 augmentation part       56.8516168 magnetization      27.3292651

 Broyden mixing:
  rms(total) = 0.18075E+01    rms(broyden)= 0.18074E+01
  rms(prec ) = 0.18326E+01
  weight for this iteration     100.00

 eigenvalues of (default mixing * dielectric matrix)
  average eigenvalue GAMMA=   1.0696
  1.8487  0.6801  0.6801

 Free energy of the ion-electron system (eV)
  ---------------------------------------------------
  alpha Z        PSCENC =       717.07591129
  Ewald energy   TEWEN  =    220242.39178686
  -Hartree energ DENC   =   -256776.93438918
  -exchange      EXHF   =         0.00000000
  -V(xc)+E(xc)   XCENC  =      1805.13169091
  PAW double counting   =     44835.91445664   -44607.61969516
  entropy T*S    EENTRO =        -0.00363454
  eigenvalues    EBANDS =     -8262.32331156
  atomic energy  EATOM  =     41691.75653052
  Solvation  Ediel_sol  =         0.00000000
  ---------------------------------------------------
  free energy    TOTEN  =      -354.61065423 eV

  energy without entropy =     -354.60701969  energy(sigma->0) =     -354.60883696


--------------------------------------------------------------------------------------------------------




--------------------------------------- Iteration      1(   9)  ---------------------------------------


    POTLOK:  cpu time    0.1477: real time    0.1489
    SETDIJ:  cpu time    0.0115: real time    0.0115
     EDDAV:  cpu time   47.4534: real time   47.4960
       DOS:  cpu time    0.0028: real time    0.0028
    CHARGE:  cpu time    0.6176: real time    0.6218
    MIXING:  cpu time    0.0052: real time    0.0052
    --------------------------------------------
      LOOP:  cpu time   48.2381: real time   48.2861

 eigenvalue-minimisations  :  3816
 total energy-change (2. order) :-0.5670167E+01  (-0.9523893E+00)
 number of electron     393.0000060 magnetization      26.1692931
 augmentation part       57.2166384 magnetization      22.4324225

 Broyden mixing:
  rms(total) = 0.12654E+01    rms(broyden)= 0.12654E+01
  rms(prec ) = 0.12843E+01
  weight for this iteration     100.00

 eigenvalues of (default mixing * dielectric matrix)
  average eigenvalue GAMMA=   1.1391
  2.4466  1.0094  0.5501  0.5501

 Free energy of the ion-electron system (eV)
  ---------------------------------------------------
  alpha Z        PSCENC =       717.07591129
  Ewald energy   TEWEN  =    220242.39178686
  -Hartree energ DENC   =   -256827.28842114
  -exchange      EXHF   =         0.00000000
  -V(xc)+E(xc)   XCENC  =      1800.40712858
  PAW double counting   =     46007.09834175   -45783.45111670
  entropy T*S    EENTRO =        -0.00673107
  eigenvalues    EBANDS =     -8208.26425127
  atomic energy  EATOM  =     41691.75653052
  Solvation  Ediel_sol  =         0.00000000
  ---------------------------------------------------
  free energy    TOTEN  =      -360.28082117 eV

  energy without entropy =     -360.27409011  energy(sigma->0) =     -360.27745564


--------------------------------------------------------------------------------------------------------




--------------------------------------- Iteration      1(  10)  ---------------------------------------


    POTLOK:  cpu time    0.1482: real time    0.1572
    SETDIJ:  cpu time    0.0115: real time    0.0115
     EDDAV:  cpu time   48.1046: real time   48.1481
       DOS:  cpu time    0.0027: real time    0.0027
    CHARGE:  cpu time    0.6313: real time    0.6317
    MIXING:  cpu time    0.0053: real time    0.0053
    --------------------------------------------
      LOOP:  cpu time   48.9036: real time   48.9565

 eigenvalue-minimisations  :  3888
 total energy-change (2. order) :-0.1039058E+02  (-0.4734122E+00)
 number of electron     393.0000060 magnetization      22.8802957
 augmentation part       57.2708368 magnetization      20.8680103

 Broyden mixing:
  rms(total) = 0.10925E+01    rms(broyden)= 0.10925E+01
  rms(prec ) = 0.11133E+01
  weight for this iteration     100.00

 eigenvalues of (default mixing * dielectric matrix)
  average eigenvalue GAMMA=   1.0699
  2.5295  1.1413  0.6348  0.6348  0.4091

 Free energy of the ion-electron system (eV)
  ---------------------------------------------------
  alpha Z        PSCENC =       717.07591129
  Ewald energy   TEWEN  =    220242.39178686
  -Hartree energ DENC   =   -256865.03454820
  -exchange      EXHF   =         0.00000000
  -V(xc)+E(xc)   XCENC  =      1792.81941763
  PAW double counting   =     46874.72219889   -46654.93985716
  entropy T*S    EENTRO =        -0.00533442
  eigenvalues    EBANDS =     -8169.45751042
  atomic energy  EATOM  =     41691.75653052
  Solvation  Ediel_sol  =         0.00000000
  ---------------------------------------------------
  free energy    TOTEN  =      -370.67140502 eV

  energy without entropy =     -370.66607060  energy(sigma->0) =     -370.66873781


--------------------------------------------------------------------------------------------------------




--------------------------------------- Iteration      1(  11)  ---------------------------------------


    POTLOK:  cpu time    0.1465: real time    0.1483
    SETDIJ:  cpu time    0.0117: real time    0.0117
     EDDAV:  cpu time   47.6632: real time   47.7097
       DOS:  cpu time    0.0032: real time    0.0032
    CHARGE:  cpu time    0.6237: real time    0.6267
    MIXING:  cpu time    0.0057: real time    0.0057
    --------------------------------------------
      LOOP:  cpu time   48.4539: real time   48.5053

 eigenvalue-minimisations  :  3852
 total energy-change (2. order) :-0.4782110E+01  (-0.2139725E+00)
 number of electron     393.0000061 magnetization      16.5692582
 augmentation part       57.2410073 magnetization      14.6214175

 Broyden mixing:
  rms(total) = 0.91222E+00    rms(broyden)= 0.91222E+00
  rms(prec ) = 0.91558E+00
  weight for this iteration     100.00

 eigenvalues of (default mixing * dielectric matrix)
  average eigenvalue GAMMA=   1.1473
  2.6235  1.7431  0.8074  0.6765  0.5821  0.4515

 Free energy of the ion-electron system (eV)
  ---------------------------------------------------
  alpha Z        PSCENC =       717.07591129
  Ewald energy   TEWEN  =    220242.39178686
  -Hartree energ DENC   =   -256888.23171953
  -exchange      EXHF   =         0.00000000
  -V(xc)+E(xc)   XCENC  =      1789.49793712
  PAW double counting   =     46845.55948781   -46625.42604645
  entropy T*S    EENTRO =        -0.00689489
  eigenvalues    EBANDS =     -8148.07050820
  atomic energy  EATOM  =     41691.75653052
  Solvation  Ediel_sol  =         0.00000000
  ---------------------------------------------------
  free energy    TOTEN  =      -375.45351547 eV

  energy without entropy =     -375.44662058  energy(sigma->0) =     -375.45006803


--------------------------------------------------------------------------------------------------------




--------------------------------------- Iteration      1(  12)  ---------------------------------------


    POTLOK:  cpu time    0.1477: real time    0.1564
    SETDIJ:  cpu time    0.0117: real time    0.0117
     EDDAV:  cpu time   46.4857: real time   46.5326
       DOS:  cpu time    0.0025: real time    0.0025
    CHARGE:  cpu time    0.6269: real time    0.6271
    MIXING:  cpu time    0.0059: real time    0.0059
    --------------------------------------------
      LOOP:  cpu time   47.2803: real time   47.3361

 eigenvalue-minimisations  :  3708
 total energy-change (2. order) :-0.1104453E+02  (-0.4963109E+00)
 number of electron     393.0000061 magnetization       7.3378517
 augmentation part       57.1253156 magnetization       5.8704614

 Broyden mixing:
  rms(total) = 0.66555E+00    rms(broyden)= 0.66554E+00
  rms(prec ) = 0.67902E+00
  weight for this iteration     100.00

 eigenvalues of (default mixing * dielectric matrix)
  average eigenvalue GAMMA=   1.3889
  4.1707  2.3801  0.9018  0.6440  0.6440  0.5506  0.4313

 Free energy of the ion-electron system (eV)
  ---------------------------------------------------
  alpha Z        PSCENC =       717.07591129
  Ewald energy   TEWEN  =    220242.39178686
  -Hartree energ DENC   =   -256910.80865044
  -exchange      EXHF   =         0.00000000
  -V(xc)+E(xc)   XCENC  =      1782.41861095
  PAW double counting   =     46408.44236103   -46187.21816231
  entropy T*S    EENTRO =        -0.00239064
  eigenvalues    EBANDS =     -8130.55404198
  atomic energy  EATOM  =     41691.75653052
  Solvation  Ediel_sol  =         0.00000000
  ---------------------------------------------------
  free energy    TOTEN  =      -386.49804472 eV

  energy without entropy =     -386.49565408  energy(sigma->0) =     -386.49684940


--------------------------------------------------------------------------------------------------------




--------------------------------------- Iteration      1(  13)  ---------------------------------------


    POTLOK:  cpu time    0.1460: real time    0.1474
    SETDIJ:  cpu time    0.0116: real time    0.0116
     EDDAV:  cpu time   48.4548: real time   48.5008
       DOS:  cpu time    0.0025: real time    0.0025
    CHARGE:  cpu time    0.6237: real time    0.6241
    MIXING:  cpu time    0.0061: real time    0.0062
    --------------------------------------------
      LOOP:  cpu time   49.2448: real time   49.2926

 eigenvalue-minimisations  :  3924
 total energy-change (2. order) :-0.1247161E+02  (-0.9602781E+00)
 number of electron     393.0000061 magnetization       2.9290932
 augmentation part       57.1051087 magnetization       2.5988763

 Broyden mixing:
  rms(total) = 0.39089E+00    rms(broyden)= 0.39088E+00
  rms(prec ) = 0.40577E+00
  weight for this iteration     100.00

 eigenvalues of (default mixing * dielectric matrix)
  average eigenvalue GAMMA=   1.7347
  7.5345  2.4214  0.9597  0.7452  0.7452  0.5314  0.5314  0.4089

 Free energy of the ion-electron system (eV)
  ---------------------------------------------------
  alpha Z        PSCENC =       717.07591129
  Ewald energy   TEWEN  =    220242.39178686
  -Hartree energ DENC   =   -256925.36762521
  -exchange      EXHF   =         0.00000000
  -V(xc)+E(xc)   XCENC  =      1773.90651347
  PAW double counting   =     45827.11532577   -45605.23634537
  entropy T*S    EENTRO =        -0.00400814
  eigenvalues    EBANDS =     -8120.60774476
  atomic energy  EATOM  =     41691.75653052
  Solvation  Ediel_sol  =         0.00000000
  ---------------------------------------------------
  free energy    TOTEN  =      -398.96965557 eV

  energy without entropy =     -398.96564744  energy(sigma->0) =     -398.96765151


--------------------------------------------------------------------------------------------------------




--------------------------------------- Iteration      1(  14)  ---------------------------------------


    POTLOK:  cpu time    0.1468: real time    0.1565
    SETDIJ:  cpu time    0.0116: real time    0.0116
     EDDAV:  cpu time   48.7638: real time   48.8104
       DOS:  cpu time    0.0025: real time    0.0025
    CHARGE:  cpu time    0.6212: real time    0.6214
    MIXING:  cpu time    0.0063: real time    0.0063
    --------------------------------------------
      LOOP:  cpu time   49.5523: real time   49.6087

 eigenvalue-minimisations  :  3960
 total energy-change (2. order) :-0.3400613E+01  (-0.2427571E+00)
 number of electron     393.0000060 magnetization       1.6542144
 augmentation part       57.1167757 magnetization       1.5166962

 Broyden mixing:
  rms(total) = 0.23108E+00    rms(broyden)= 0.23107E+00
  rms(prec ) = 0.24309E+00
  weight for this iteration     100.00

 eigenvalues of (default mixing * dielectric matrix)
  average eigenvalue GAMMA=   1.8414
  9.1844  2.3621  1.3608  0.7865  0.7153  0.7153  0.5470  0.4897  0.4114

 Free energy of the ion-electron system (eV)
  ---------------------------------------------------
  alpha Z        PSCENC =       717.07591129
  Ewald energy   TEWEN  =    220242.39178686
  -Hartree energ DENC   =   -256910.87140390
  -exchange      EXHF   =         0.00000000
  -V(xc)+E(xc)   XCENC  =      1771.41224901
  PAW double counting   =     45756.17733240   -45534.71903394
  entropy T*S    EENTRO =        -0.00246236
  eigenvalues    EBANDS =     -8135.59117824
  atomic energy  EATOM  =     41691.75653052
  Solvation  Ediel_sol  =         0.00000000
  ---------------------------------------------------
  free energy    TOTEN  =      -402.37026837 eV

  energy without entropy =     -402.36780601  energy(sigma->0) =     -402.36903719


--------------------------------------------------------------------------------------------------------




--------------------------------------- Iteration      1(  15)  ---------------------------------------


    POTLOK:  cpu time    0.1463: real time    0.1488
    SETDIJ:  cpu time    0.0116: real time    0.0118
     EDDAV:  cpu time   49.8470: real time   49.8926
       DOS:  cpu time    0.0025: real time    0.0025
    CHARGE:  cpu time    0.6204: real time    0.6208
    MIXING:  cpu time    0.0067: real time    0.0067
    --------------------------------------------
      LOOP:  cpu time   50.6345: real time   50.6832

 eigenvalue-minimisations  :  4068
 total energy-change (2. order) :-0.7262684E+00  (-0.4602147E-01)
 number of electron     393.0000060 magnetization       0.9387223
 augmentation part       57.1254901 magnetization       0.9037577

 Broyden mixing:
  rms(total) = 0.11312E+00    rms(broyden)= 0.11311E+00
  rms(prec ) = 0.12378E+00
  weight for this iteration     100.00

 eigenvalues of (default mixing * dielectric matrix)
  average eigenvalue GAMMA=   1.9035
 10.3160  2.1789  2.0725  0.9422  0.7522  0.7522  0.5731  0.5731  0.4654  0.4090

 Free energy of the ion-electron system (eV)
  ---------------------------------------------------
  alpha Z        PSCENC =       717.07591129
  Ewald energy   TEWEN  =    220242.39178686
  -Hartree energ DENC   =   -256876.27467515
  -exchange      EXHF   =         0.00000000
  -V(xc)+E(xc)   XCENC  =      1770.75160214
  PAW double counting   =     45913.67406260   -45692.85083334
  entropy T*S    EENTRO =        -0.00288884
  eigenvalues    EBANDS =     -8169.61803285
  atomic energy  EATOM  =     41691.75653052
  Solvation  Ediel_sol  =         0.00000000
  ---------------------------------------------------
  free energy    TOTEN  =      -403.09653678 eV

  energy without entropy =     -403.09364794  energy(sigma->0) =     -403.09509236


--------------------------------------------------------------------------------------------------------




--------------------------------------- Iteration      1(  16)  ---------------------------------------


    POTLOK:  cpu time    0.1473: real time    0.1561
    SETDIJ:  cpu time    0.0118: real time    0.0118
     EDDAV:  cpu time   47.0387: real time   47.0825
       DOS:  cpu time    0.0027: real time    0.0027
    CHARGE:  cpu time    0.6234: real time    0.6238
    MIXING:  cpu time    0.0070: real time    0.0070
    --------------------------------------------
      LOOP:  cpu time   47.8308: real time   47.8839

 eigenvalue-minimisations  :  3780
 total energy-change (2. order) :-0.4572539E+00  (-0.1815050E-01)
 number of electron     393.0000060 magnetization       0.6119223
 augmentation part       57.1015786 magnetization       0.6025574

 Broyden mixing:
  rms(total) = 0.65851E-01    rms(broyden)= 0.65848E-01
  rms(prec ) = 0.74554E-01
  weight for this iteration     100.00

 eigenvalues of (default mixing * dielectric matrix)
  average eigenvalue GAMMA=   1.8913
 10.7945  2.3569  2.3569  1.0940  0.8508  0.6931  0.6931  0.5542  0.5542  0.4528
  0.4041

 Free energy of the ion-electron system (eV)
  ---------------------------------------------------
  alpha Z        PSCENC =       717.07591129
  Ewald energy   TEWEN  =    220242.39178686
  -Hartree energ DENC   =   -256832.96506901
  -exchange      EXHF   =         0.00000000
  -V(xc)+E(xc)   XCENC  =      1770.06165430
  PAW double counting   =     46012.70633401   -45791.82853826
  entropy T*S    EENTRO =        -0.00289051
  eigenvalues    EBANDS =     -8212.74950988
  atomic energy  EATOM  =     41691.75653052
  Solvation  Ediel_sol  =         0.00000000
  ---------------------------------------------------
  free energy    TOTEN  =      -403.55379069 eV

  energy without entropy =     -403.55090018  energy(sigma->0) =     -403.55234543


--------------------------------------------------------------------------------------------------------




--------------------------------------- Iteration      1(  17)  ---------------------------------------


    POTLOK:  cpu time    0.1471: real time    0.1494
    SETDIJ:  cpu time    0.0117: real time    0.0117
     EDDAV:  cpu time   48.0290: real time   48.0739
       DOS:  cpu time    0.0025: real time    0.0025
    CHARGE:  cpu time    0.6279: real time    0.6282
    MIXING:  cpu time    0.0072: real time    0.0072
    --------------------------------------------
      LOOP:  cpu time   48.8253: real time   48.8729

 eigenvalue-minimisations  :  3888
 total energy-change (2. order) :-0.9378745E+00  (-0.7456076E-02)
 number of electron     393.0000060 magnetization       0.4486091
 augmentation part       57.0951565 magnetization       0.4570685

 Broyden mixing:
  rms(total) = 0.40411E-01    rms(broyden)= 0.40407E-01
  rms(prec ) = 0.49139E-01
  weight for this iteration     100.00

 eigenvalues of (default mixing * dielectric matrix)
  average eigenvalue GAMMA=   1.8544
 10.9946  2.5445  2.5445  1.1591  1.0236  0.7324  0.7324  0.5857  0.5857  0.4993
  0.4451  0.4061

 Free energy of the ion-electron system (eV)
  ---------------------------------------------------
  alpha Z        PSCENC =       717.07591129
  Ewald energy   TEWEN  =    220242.39178686
  -Hartree energ DENC   =   -256806.25502339
  -exchange      EXHF   =         0.00000000
  -V(xc)+E(xc)   XCENC  =      1768.92427509
  PAW double counting   =     46017.58341971   -45796.48369318
  entropy T*S    EENTRO =        -0.00287972
  eigenvalues    EBANDS =     -8239.48199232
  atomic energy  EATOM  =     41691.75653052
  Solvation  Ediel_sol  =         0.00000000
  ---------------------------------------------------
  free energy    TOTEN  =      -404.49166515 eV

  energy without entropy =     -404.48878543  energy(sigma->0) =     -404.49022529


--------------------------------------------------------------------------------------------------------




--------------------------------------- Iteration      1(  18)  ---------------------------------------


    POTLOK:  cpu time    0.1472: real time    0.1571
    SETDIJ:  cpu time    0.0119: real time    0.0119
     EDDAV:  cpu time   48.1321: real time   48.1765
       DOS:  cpu time    0.0024: real time    0.0024
    CHARGE:  cpu time    0.6278: real time    0.6282
    MIXING:  cpu time    0.0076: real time    0.0076
    --------------------------------------------
      LOOP:  cpu time   48.9290: real time   48.9837

 eigenvalue-minimisations  :  3888
 total energy-change (2. order) :-0.5714222E+00  (-0.2214788E-02)
 number of electron     393.0000060 magnetization       0.3572497
 augmentation part       57.1035474 magnetization       0.3693612

 Broyden mixing:
  rms(total) = 0.24290E-01    rms(broyden)= 0.24288E-01
  rms(prec ) = 0.31087E-01
  weight for this iteration     100.00

 eigenvalues of (default mixing * dielectric matrix)
  average eigenvalue GAMMA=   1.8080
 11.0560  2.7908  2.3852  1.4782  1.0853  0.7724  0.7724  0.6679  0.5802  0.5802
  0.4938  0.4057  0.4361

 Free energy of the ion-electron system (eV)
  ---------------------------------------------------
  alpha Z        PSCENC =       717.07591129
  Ewald energy   TEWEN  =    220242.39178686
  -Hartree energ DENC   =   -256780.35485508
  -exchange      EXHF   =         0.00000000
  -V(xc)+E(xc)   XCENC  =      1768.21891885
  PAW double counting   =     46027.25677953   -45806.16225484
  entropy T*S    EENTRO =        -0.00287588
  eigenvalues    EBANDS =     -8265.24302857
  atomic energy  EATOM  =     41691.75653052
  Solvation  Ediel_sol  =         0.00000000
  ---------------------------------------------------
  free energy    TOTEN  =      -405.06308732 eV

  energy without entropy =     -405.06021144  energy(sigma->0) =     -405.06164938


--------------------------------------------------------------------------------------------------------




--------------------------------------- Iteration      1(  19)  ---------------------------------------


    POTLOK:  cpu time    0.1475: real time    0.1487
    SETDIJ:  cpu time    0.0117: real time    0.0118
     EDDAV:  cpu time   49.1022: real time   49.1485
       DOS:  cpu time    0.0025: real time    0.0025
    CHARGE:  cpu time    0.6237: real time    0.6241
    MIXING:  cpu time    0.0082: real time    0.0082
    --------------------------------------------
      LOOP:  cpu time   49.8958: real time   49.9438

 eigenvalue-minimisations  :  3996
 total energy-change (2. order) :-0.1720969E+00  (-0.6912674E-03)
 number of electron     393.0000060 magnetization       0.2770248
 augmentation part       57.1077589 magnetization       0.2850254

 Broyden mixing:
  rms(total) = 0.18863E-01    rms(broyden)= 0.18863E-01
  rms(prec ) = 0.23842E-01
  weight for this iteration     100.00

 eigenvalues of (default mixing * dielectric matrix)
  average eigenvalue GAMMA=   1.7824
 11.0794  2.9716  2.4225  1.8932  1.0187  1.0187  0.7502  0.7502  0.5961  0.5961
  0.5444  0.4735  0.4044  0.4346

 Free energy of the ion-electron system (eV)
  ---------------------------------------------------
  alpha Z        PSCENC =       717.07591129
  Ewald energy   TEWEN  =    220242.39178686
  -Hartree energ DENC   =   -256760.87274199
  -exchange      EXHF   =         0.00000000
  -V(xc)+E(xc)   XCENC  =      1767.96643935
  PAW double counting   =     46029.42250003   -45808.30502794
  entropy T*S    EENTRO =        -0.00288404
  eigenvalues    EBANDS =     -8284.66769834
  atomic energy  EATOM  =     41691.75653052
  Solvation  Ediel_sol  =         0.00000000
  ---------------------------------------------------
  free energy    TOTEN  =      -405.23518425 eV

  energy without entropy =     -405.23230021  energy(sigma->0) =     -405.23374223


--------------------------------------------------------------------------------------------------------




--------------------------------------- Iteration      1(  20)  ---------------------------------------


    POTLOK:  cpu time    0.1467: real time    0.1561
    SETDIJ:  cpu time    0.0116: real time    0.0116
     EDDAV:  cpu time   48.1182: real time   48.1606
       DOS:  cpu time    0.0024: real time    0.0024
    CHARGE:  cpu time    0.6280: real time    0.6284
    MIXING:  cpu time    0.0082: real time    0.0082
    --------------------------------------------
      LOOP:  cpu time   48.9151: real time   48.9673

 eigenvalue-minimisations  :  3888
 total energy-change (2. order) :-0.9831384E-01  (-0.4812018E-03)
 number of electron     393.0000060 magnetization       0.2279505
 augmentation part       57.1073488 magnetization       0.2274015

 Broyden mixing:
  rms(total) = 0.12470E-01    rms(broyden)= 0.12470E-01
  rms(prec ) = 0.15785E-01
  weight for this iteration     100.00

 eigenvalues of (default mixing * dielectric matrix)
  average eigenvalue GAMMA=   1.8001
 11.0865  3.4699  2.4612  2.2369  1.2683  1.1331  0.8047  0.7476  0.7476  0.6156
  0.5609  0.5609  0.4705  0.4053  0.4319

 Free energy of the ion-electron system (eV)
  ---------------------------------------------------
  alpha Z        PSCENC =       717.07591129
  Ewald energy   TEWEN  =    220242.39178686
  -Hartree energ DENC   =   -256738.95674481
  -exchange      EXHF   =         0.00000000
  -V(xc)+E(xc)   XCENC  =      1767.76929185
  PAW double counting   =     46042.17014322   -45821.00195358
  entropy T*S    EENTRO =        -0.00289088
[...]
   41        0.000  -0.000  -0.000  -0.000
   42        0.000  -0.000  -0.000  -0.000
   43        0.000  -0.000  -0.000  -0.000
   44       -0.000  -0.000  -0.000  -0.000
   45        0.000  -0.000  -0.000  -0.000
--------------------------------------------------
tot          0.000   0.000  -0.000  -0.000
 
    CHARGE:  cpu time    0.6215: real time    0.6216
    FORLOC:  cpu time    0.0188: real time    0.0188
    FORNL :  cpu time   10.3848: real time   10.3905
    STRESS:  cpu time   63.5922: real time   63.6346
    FORCOR:  cpu time    0.1464: real time    0.1464
    FORHAR:  cpu time    0.0328: real time    0.0328
    MIXING:  cpu time    0.0162: real time    0.0162
    OFIELD:  cpu time    0.0001: real time    0.0001

 ---------------------------------------------------------------------------------------------

         DFTD3 V3.0 Rev 1        
 IVDW         = 12
 DF pbe       
 parameters
 VDW_S6       =    1.0000
 VDW_S8       =    0.7875
 VDW_A1       =    0.4289
 VDW_A2       =    4.4407
 k1-k3        =   16.0000    1.3333   -4.0000
 VDW_RADIUS   =   50.2022 A
 VDW_CNRADIUS =   21.1671 A
 Edisp (eV)  -11.77615

 E6    (eV) :    -6.6759
 E8    (eV) :    -5.1002
 % E8        : 43.31
    FORVDW:  cpu time    0.1334: real time    0.1465

  FORCE on cell =-STRESS in cart. coord.  units (eV):
  Direction    XX          YY          ZZ          XY          YZ          ZX
  --------------------------------------------------------------------------------------
  Alpha Z   717.07591   717.07591   717.07591
  Ewald  245188.35529245188.34933************    -0.00218     0.00212    -0.00175
  Hartree252407.03439252407.03605************    -0.00002     0.00098    -0.00027
  E(xc)   -1865.76933 -1865.76928 -1870.00474    -0.00002     0.00000    -0.00001
  Local  ************************512069.96788    -0.00014    -0.00342     0.00207
  n-local  -842.69174  -838.98063  -864.60219    -3.21407     0.40978     0.69664
  augment   756.38261   756.38456   766.96496     0.00082     0.00000     0.00002
  Kinetic  7335.72495  7343.52422  7443.53051    -6.75339     0.50455     0.87586
  Fock        0.00000     0.00000     0.00000     0.00000     0.00000     0.00000
  vdW       -12.50395   -12.50395    -5.61413     0.00000    -0.00000    -0.00000
  -------------------------------------------------------------------------------------
  Total       0.04569     0.04569    -1.45908     0.00000    -0.00000     0.00000
  in kB       0.04535     0.04535    -1.44819     0.00000    -0.00000     0.00000
  external pressure =       -0.45 kB  Pullay stress =        0.00 kB


 VOLUME and BASIS-vectors are now :
 -----------------------------------------------------------------------------
  energy-cutoff  :      600.00
  volume of cell :     1614.23
      direct lattice vectors                 reciprocal lattice vectors
     8.634687000  0.000000000  0.000000000     0.115811957  0.066864006  0.000000000
    -4.317343000  7.477864000  0.000000000     0.000000000  0.133728027  0.000000000
     0.000000000  0.000000000 25.000000000     0.000000000  0.000000000  0.040000000

  length of vectors
     8.634687000  8.634691690 25.000000000     0.133728100  0.133728027  0.040000000


 FORCES acting on ions
    electron-ion (+dipol)            ewald-force                    non-local-force                 convergence-correction
 -----------------------------------------------------------------------------------------------
   0.571E+01 -.330E+01 0.212E+02   -.576E+01 0.332E+01 -.221E+02   0.374E-01 -.216E-01 0.937E+00   -.245E-04 0.142E-04 -.549E-04
   -.149E+02 -.862E+01 -.113E+02   0.148E+02 0.856E+01 0.111E+02   0.125E+00 0.724E-01 0.248E+00   -.351E-04 -.203E-04 -.389E-04
   0.591E-04 0.659E+01 0.212E+02   0.146E-03 -.665E+01 -.221E+02   0.288E-08 0.431E-01 0.937E+00   -.132E-08 -.283E-04 -.549E-04
   -.571E+01 -.330E+01 0.212E+02   0.576E+01 0.332E+01 -.221E+02   -.374E-01 -.216E-01 0.937E+00   0.245E-04 0.142E-04 -.549E-04
   0.219E-03 -.896E+02 -.421E+02   -.954E-03 0.918E+02 0.425E+02   -.147E-06 -.220E+01 -.406E+00   0.521E-09 -.100E-04 -.511E-04
   -.776E+02 0.448E+02 -.421E+02   0.795E+02 -.459E+02 0.425E+02   -.190E+01 0.110E+01 -.406E+00   -.869E-05 0.502E-05 -.511E-04
   -.344E-04 0.172E+02 -.113E+02   0.617E-03 -.171E+02 0.111E+02   -.968E-08 -.145E+00 0.248E+00   -.449E-09 0.405E-04 -.389E-04
   0.149E+02 -.862E+01 -.113E+02   -.148E+02 0.856E+01 0.111E+02   -.125E+00 0.724E-01 0.248E+00   0.351E-04 -.203E-04 -.389E-04
   0.776E+02 0.448E+02 -.421E+02   -.795E+02 -.459E+02 0.425E+02   0.190E+01 0.110E+01 -.406E+00   0.869E-05 0.502E-05 -.511E-04
   0.113E+02 -.652E+01 -.200E+04   -.108E+02 0.624E+01 0.203E+04   -.477E+00 0.275E+00 -.309E+02   -.280E-04 0.162E-04 0.387E-04
   -.154E+02 -.891E+01 -.199E+04   0.156E+02 0.900E+01 0.202E+04   -.129E+00 -.748E-01 -.294E+02   -.425E-04 -.246E-04 0.471E-05
   0.477E-03 0.130E+02 -.200E+04   0.440E-03 -.125E+02 0.203E+04   -.368E-07 -.551E+00 -.309E+02   -.247E-07 -.323E-04 0.387E-04
   -.113E+02 -.652E+01 -.200E+04   0.108E+02 0.624E+01 0.203E+04   0.477E+00 0.275E+00 -.309E+02   0.280E-04 0.162E-04 0.387E-04
   -.438E-02 -.579E+02 -.201E+04   -.888E-03 0.511E+02 0.204E+04   0.456E-06 0.681E+01 -.293E+02   -.336E-07 -.304E-04 0.524E-04
   -.501E+02 0.289E+02 -.201E+04   0.442E+02 -.255E+02 0.204E+04   0.590E+01 -.341E+01 -.293E+02   -.263E-04 0.152E-04 0.524E-04
   -.399E-02 0.178E+02 -.199E+04   -.135E-02 -.180E+02 0.202E+04   0.100E-07 0.150E+00 -.294E+02   0.496E-07 0.491E-04 0.470E-05
   0.154E+02 -.891E+01 -.199E+04   -.156E+02 0.900E+01 0.202E+04   0.129E+00 -.748E-01 -.294E+02   0.425E-04 -.246E-04 0.469E-05
   0.501E+02 0.289E+02 -.201E+04   -.442E+02 -.255E+02 0.204E+04   -.590E+01 -.341E+01 -.293E+02   0.263E-04 0.152E-04 0.524E-04
   0.324E+01 -.187E+01 0.203E+04   -.348E+01 0.201E+01 -.206E+04   0.227E+00 -.131E+00 0.298E+02   -.136E-04 0.785E-05 -.656E-04
   -.186E+02 -.108E+02 0.202E+04   0.200E+02 0.115E+02 -.205E+04   -.134E+01 -.776E+00 0.300E+02   -.251E-04 -.145E-04 -.493E-04
   -.441E-02 0.375E+01 0.203E+04   -.577E-03 -.402E+01 -.206E+04   0.175E-07 0.262E+00 0.298E+02   0.147E-07 -.157E-04 -.655E-04
   -.325E+01 -.187E+01 0.203E+04   0.348E+01 0.201E+01 -.206E+04   -.227E+00 -.131E+00 0.298E+02   0.136E-04 0.784E-05 -.655E-04
   -.879E-02 -.188E+02 0.199E+04   -.330E-02 0.202E+02 -.202E+04   -.954E-07 -.143E+01 0.298E+02   -.625E-08 -.894E-06 -.712E-04
   -.162E+02 0.938E+01 0.199E+04   0.175E+02 -.101E+02 -.202E+04   -.124E+01 0.714E+00 0.298E+02   -.793E-06 0.450E-06 -.712E-04
   0.315E-03 0.215E+02 0.202E+04   0.209E-02 -.231E+02 -.205E+04   0.104E-06 0.155E+01 0.300E+02   -.149E-07 0.290E-04 -.493E-04
   0.186E+02 -.108E+02 0.202E+04   -.200E+02 0.115E+02 -.205E+04   0.134E+01 -.776E+00 0.300E+02   0.251E-04 -.145E-04 -.493E-04
   0.162E+02 0.938E+01 0.199E+04   -.175E+02 -.101E+02 -.202E+04   0.124E+01 0.714E+00 0.298E+02   0.778E-06 0.448E-06 -.712E-04
   -.149E+02 -.167E+03 -.228E+04   0.155E+02 0.166E+03 0.228E+04   -.625E+00 0.141E+01 -.114E+01   -.972E-04 -.304E-04 -.390E-04
   -.152E+03 0.707E+02 -.228E+04   0.151E+03 -.694E+02 0.228E+04   0.906E+00 -.124E+01 -.114E+01   -.748E-04 -.691E-04 -.391E-04
   -.235E-03 0.448E-03 -.226E+04   -.283E-03 -.479E-03 0.226E+04   0.000E+00 -.104E-16 -.984E+00   -.834E-07 0.561E-07 -.232E-05
   0.149E+02 -.167E+03 -.228E+04   -.155E+02 0.166E+03 0.228E+04   0.625E+00 0.141E+01 -.114E+01   0.972E-04 -.303E-04 -.391E-04
   -.137E+03 0.964E+02 -.228E+04   0.136E+03 -.963E+02 0.228E+04   0.153E+01 -.162E+00 -.114E+01   0.224E-04 0.994E-04 -.391E-04
   -.670E-02 0.352E-02 -.237E+04   -.194E-02 0.589E-02 0.237E+04   0.108E-18 0.000E+00 -.938E+00   0.362E-07 -.323E-07 -.383E-04
   0.152E+03 0.707E+02 -.228E+04   -.151E+03 -.694E+02 0.228E+04   -.906E+00 -.124E+01 -.114E+01   0.748E-04 -.690E-04 -.391E-04
   0.137E+03 0.964E+02 -.228E+04   -.136E+03 -.963E+02 0.228E+04   -.153E+01 -.162E+00 -.114E+01   -.223E-04 0.994E-04 -.390E-04
   -.542E-02 -.390E+02 0.243E+04   -.607E-02 0.394E+02 -.243E+04   -.266E-07 -.398E+00 0.130E+01   0.425E-07 -.576E-05 -.183E-03
   -.723E+02 -.418E+02 0.216E+04   0.730E+02 0.421E+02 -.216E+04   -.680E+00 -.393E+00 0.510E+00   -.246E-04 -.142E-04 -.170E-03
   -.338E+02 0.195E+02 0.243E+04   0.341E+02 -.197E+02 -.243E+04   -.344E+00 0.199E+00 0.130E+01   -.501E-05 0.289E-05 -.183E-03
   0.731E+01 0.422E+01 0.239E+04   -.729E+01 -.421E+01 -.239E+04   -.165E-01 -.953E-02 0.190E+01   0.301E-04 0.174E-04 -.121E-03
   0.723E+02 -.418E+02 0.216E+04   -.730E+02 0.421E+02 -.216E+04   0.680E+00 -.393E+00 0.510E+00   0.246E-04 -.142E-04 -.170E-03
   0.557E-02 0.835E+02 0.216E+04   0.116E-01 -.843E+02 -.216E+04   0.525E-07 0.786E+00 0.510E+00   0.499E-08 0.284E-04 -.170E-03
   -.731E+01 0.422E+01 0.239E+04   0.729E+01 -.421E+01 -.239E+04   0.165E-01 -.953E-02 0.190E+01   -.302E-04 0.174E-04 -.121E-03
   -.101E-03 -.844E+01 0.239E+04   0.513E-02 0.842E+01 -.239E+04   0.127E-08 0.191E-01 0.190E+01   0.258E-08 -.348E-04 -.121E-03
   0.338E+02 0.195E+02 0.243E+04   -.341E+02 -.197E+02 -.243E+04   0.344E+00 0.199E+00 0.130E+01   0.500E-05 0.284E-05 -.183E-03
   0.615E-04 -.399E-03 -.268E+04   -.114E-02 0.309E-02 0.269E+04   0.217E-17 0.000E+00 -.928E+00   0.127E-07 0.340E-08 0.877E-04
 -----------------------------------------------------------------------------------------------
   -.610E-01 0.308E-01 -.387E+01   0.285E-12 -.559E-13 0.136E-11   -.220E-15 0.971E-15 0.387E+01   -.228E-07 -.383E-08 -.231E-02
 
 
 POSITION                                       TOTAL-FORCE (eV/Angst)
 -----------------------------------------------------------------------------------
      8.62030      0.00831     12.45628        -0.006570      0.003793     -0.004567
      7.18462      2.48630     12.48370         0.012932      0.007466     -0.006545
      5.75646      4.96863     12.45628        -0.000000     -0.007587     -0.004567
      2.89262      0.00831     12.45628         0.006570      0.003793     -0.004567
      1.43911      2.40635     12.45775        -0.000000     -0.005931     -0.000485
     -0.07471      5.02838     12.45772        -0.005136      0.002965     -0.000485
      5.75646      0.01265     12.48370        -0.000000     -0.014932     -0.006545
      4.32829      2.48630     12.48370        -0.012932      0.007466     -0.006545
      2.95294      5.02838     12.45775         0.005136      0.002965     -0.000485
     -4.31442      7.47617     15.03800         0.000448     -0.000259      0.006163
     -1.42862      2.49868     15.05228         0.008818      0.005091      0.009954
     -2.87823      4.98863     15.03800         0.000000      0.000518      0.006163
     -1.44204      7.47617     15.03800        -0.000448     -0.000259      0.006163
      1.43912      2.13162     15.18375         0.000000      0.004401     -0.008688
     -0.31263      5.16575     15.18375         0.003812     -0.002201     -0.008688
      1.43912      7.46575     15.05225        -0.000000     -0.010182      0.009954
      4.30686      2.49868     15.05228        -0.008818      0.005091      0.009954
      3.19086      5.16574     15.18375        -0.003812     -0.002201     -0.008688
      8.61155      0.01336      9.87110        -0.007177      0.004144     -0.009223
     -1.42785      2.49912      9.90282         0.005588      0.003226     -0.003947
      5.75646      4.95853      9.87110        -0.000000     -0.008287     -0.009223
      2.90137      0.01336      9.87110         0.007177      0.004144     -0.009223
      1.43912      2.53103      9.94280         0.000000      0.008750      0.002491
      0.03326      4.96604      9.94280         0.007578     -0.004375      0.002491
      1.43911      7.46486      9.90282        -0.000000     -0.006453     -0.003947
      4.30608      2.49912      9.90285        -0.005588      0.003226     -0.003947
      2.84497      4.96603      9.94280        -0.007578     -0.004375      0.002491
      0.01397      1.63710     13.83283        -0.019852     -0.004564     -0.009548
     -1.45348      4.17879     13.83283        -0.013878     -0.014910     -0.009548
     -2.87823      6.64699     13.80878         0.000000     -0.000000     -0.027673
      2.86426      1.63710     13.83283         0.019852     -0.004564     -0.009548
     -0.02833      6.64722     13.83283         0.005974      0.019474     -0.009548
      5.75646      1.66175     13.85055        -0.000000     -0.000000     -0.040461
      4.33170      4.17879     13.83283         0.013878     -0.014910     -0.009548
      2.90656      6.64722     13.83283        -0.005974      0.019474     -0.009548
      1.43912      0.81687     11.08290        -0.000000     -0.006226      0.019961
     -0.00197      3.32236     11.17798        -0.031006     -0.017902      0.007684
     -1.45124      5.82312     11.08290        -0.005392      0.003113      0.019961
      4.32920      0.83772     11.09752         0.008223      0.004748      0.027271
      2.88020      3.32236     11.17798         0.031006     -0.017902      0.007684
      1.43911      5.81839     11.17798         0.000000      0.035803      0.007684
      7.18371      0.83772     11.09752        -0.008223      0.004748      0.027271
      5.75646      3.30980     11.09752        -0.000000     -0.009495      0.027271
      4.32948      5.82312     11.08290         0.005392      0.003113      0.019961
      1.43911      4.15436     14.60322         0.000000     -0.000000      0.005216
 -----------------------------------------------------------------------------------
    total drift:                               -0.061022      0.030792      0.002345


--------------------------------------------------------------------------------------------------------



  FREE ENERGIE OF THE ION-ELECTRON SYSTEM (eV)
  ---------------------------------------------------
  free  energy   TOTEN  =      -417.39380462 eV

  energy  without entropy=     -417.39091371  energy(sigma->0) =     -417.39235916
 


--------------------------------------------------------------------------------------------------------


    POTLOK:  cpu time    0.1619: real time    0.1622


--------------------------------------------------------------------------------------------------------


 stress matrix after NEB project (eV)
      0.04569      0.00000      0.00000
      0.00000      0.04569      0.00000
      0.00000     -0.00000     -1.45908
  FORCES: max atom, RMS     0.040461    0.019050
  FORCE total and by dimension    0.127790    0.040461
  Stress total and by dimension    1.460514    1.459084
 writing wavefunctions
     LOOP+:  cpu time 1765.3022: real time 1769.5357
    4ORBIT:  cpu time    0.0000: real time    0.0000
 


 total charge     
 
# of ion       s       p       d       tot
------------------------------------------
    1        0.871   1.601   0.000   2.472
    2        0.872   1.597   0.000   2.469
    3        0.871   1.601   0.000   2.472
    4        0.871   1.590   0.000   2.460
    5        0.881   1.551   0.000   2.432
    6        0.881   1.551   0.000   2.432
    7        0.872   1.595   0.000   2.467
    8        0.872   1.595   0.000   2.467
    9        0.882   1.569   0.000   2.451
   10        1.587   3.389   0.000   4.977
   11        1.580   3.382   0.000   4.962
   12        1.587   3.389   0.000   4.977
   13        1.587   3.384   0.000   4.971
   14        1.587   3.345   0.000   4.933
   15        1.587   3.345   0.000   4.933
   16        1.580   3.384   0.000   4.965
   17        1.580   3.384   0.000   4.965
   18        1.588   3.383   0.000   4.970
   19        1.581   3.389   0.000   4.970
   20        1.582   3.386   0.000   4.967
   21        1.581   3.389   0.000   4.970
   22        1.581   3.377   0.000   4.958
   23        1.582   3.382   0.000   4.964
   24        1.582   3.382   0.000   4.965
   25        1.582   3.384   0.000   4.965
   26        1.582   3.384   0.000   4.966
   27        1.582   3.391   0.000   4.973
   28        2.313   6.276   3.875  12.464
   29        2.313   6.276   3.875  12.464
   30        2.301   6.268   3.959  12.528
   31        2.315   6.273   3.932  12.521
   32        2.315   6.273   3.932  12.521
   33        2.303   6.270   3.934  12.507
   34        2.314   6.275   3.957  12.546
   35        2.314   6.275   3.957  12.546
   36        2.304   6.269   3.954  12.527
   37        2.309   6.279   3.896  12.483
   38        2.304   6.269   3.955  12.528
   39        2.305   6.274   3.958  12.537
   40        2.309   6.279   3.946  12.534
   41        2.309   6.279   3.946  12.534
   42        2.305   6.274   3.948  12.528
   43        2.305   6.274   3.949  12.528
   44        2.306   6.273   3.995  12.574
   45        0.507   0.433   8.691   9.631
--------------------------------------------------
tot         76.126 182.190  75.660 333.976
 


 magnetization (x)
 
# of ion       s       p       d       tot
------------------------------------------
    1        0.000   0.000   0.000   0.000
    2        0.000  -0.000   0.000  -0.000
    3        0.000   0.000   0.000   0.000
    4        0.000   0.000   0.000   0.000
    5        0.000   0.000   0.000   0.000
    6        0.000   0.000   0.000   0.000
    7        0.000  -0.000   0.000  -0.000
    8        0.000  -0.000   0.000  -0.000
    9        0.000   0.000   0.000   0.000
   10        0.000   0.000   0.000   0.000
   11        0.000   0.000   0.000   0.000
   12        0.000   0.000   0.000   0.000
   13        0.000   0.000   0.000   0.000
   14        0.000  -0.000   0.000  -0.000
   15        0.000  -0.000   0.000  -0.000
   16        0.000   0.000   0.000   0.000
   17        0.000   0.000   0.000   0.000
   18        0.000  -0.000   0.000   0.000
   19       -0.000   0.000   0.000  -0.000
   20       -0.000   0.000   0.000   0.000
   21       -0.000   0.000   0.000  -0.000
   22       -0.000   0.000   0.000   0.000
   23        0.000   0.000   0.000   0.000
   24        0.000   0.000   0.000   0.000
   25       -0.000   0.000   0.000   0.000
   26       -0.000   0.000   0.000   0.000
   27        0.000   0.000   0.000   0.000
   28       -0.000  -0.000  -0.000  -0.000
   29       -0.000  -0.000  -0.000  -0.000
   30        0.000  -0.000  -0.000  -0.000
   31       -0.000  -0.000  -0.000  -0.000
   32       -0.000  -0.000  -0.000  -0.000
   33        0.000   0.000  -0.000  -0.000
   34       -0.000  -0.000  -0.000  -0.000
   35       -0.000  -0.000  -0.000  -0.000
   36       -0.000  -0.000  -0.000  -0.000
   37        0.000  -0.000  -0.000  -0.000
   38       -0.000  -0.000  -0.000  -0.000
   39        0.000  -0.000  -0.000  -0.000
   40        0.000  -0.000  -0.000  -0.000
   41        0.000  -0.000  -0.000  -0.000
   42        0.000  -0.000  -0.000  -0.000
   43        0.000  -0.000  -0.000  -0.000
   44       -0.000  -0.000  -0.000  -0.000
   45        0.000  -0.000  -0.000  -0.000
--------------------------------------------------
tot          0.000   0.000  -0.000  -0.000
 

 total amount of memory used by VASP MPI-rank0   254671. kBytes
=======================================================================

   base      :      30000. kBytes
   nonl-proj :     131927. kBytes
   fftplans  :       5074. kBytes
   grid      :      44468. kBytes
   one-center:       1399. kBytes
   wavefun   :      41803. kBytes
 
  
  
 General timing and accounting informations for this job:
 ========================================================
  
                  Total CPU time used (sec):     1792.675
                            User time (sec):     1784.446
                          System time (sec):        8.228
                         Elapsed time (sec):     1798.667
  
                   Maximum memory used (kb):      330908.
                   Average memory used (kb):           0.
  
                          Minor page faults:       193591
                          Major page faults:           15
                 Voluntary context switches:         2792
