unknown system                          
           1
     8.634687    0.000000    0.000000
    -4.317343    7.477864    0.000000
     0.000000    0.000000   25.000000
   C    O    Mo   Au
   9  18  17   1
Direct configuration=     1
   0.99888900  0.00111100  0.49825100
   0.99830900  0.33248800  0.49934800
   0.99888900  0.66444500  0.49825100
   0.33555500  0.00111100  0.49825100
   0.32756500  0.32179700  0.49831000
   0.32756500  0.67243500  0.49830900
   0.66751200  0.00169100  0.49934800
   0.66751200  0.33248800  0.49934800
   0.67820300  0.67243500  0.49831000
   0.00022600  0.99977400  0.60152000
   0.00162000  0.33414300  0.60209100
   0.00022600  0.66711900  0.60152000
   0.33288100  0.99977400  0.60152000
   0.30919600  0.28505800  0.60735000
   0.30919600  0.69080500  0.60735000
   0.66585700  0.99838000  0.60209000
   0.66585700  0.33414300  0.60209100
   0.71494200  0.69080400  0.60735000
   0.99821400  0.00178600  0.39484400
   0.00173900  0.33420300  0.39611300
   0.99821400  0.66309400  0.39484400
   0.33690600  0.00178600  0.39484400
   0.33590200  0.33846900  0.39771200
   0.33590100  0.66409900  0.39771200
   0.66579700  0.99826100  0.39611300
   0.66579700  0.33420300  0.39611400
   0.66153100  0.66409800  0.39771200
   0.11108100  0.21892600  0.55331300
   0.11108100  0.55882200  0.55331300
   0.11111100  0.88888900  0.55235100
   0.44117800  0.21892600  0.55331300
   0.44117800  0.88891900  0.55331300
   0.77777800  0.22222200  0.55402200
   0.78107400  0.55882200  0.55331300
   0.78107400  0.88891900  0.55331300
   0.22128600  0.10923800  0.44331600
   0.22191800  0.44429300  0.44711900
   0.22128600  0.77871400  0.44331600
   0.55738700  0.11202700  0.44390100
   0.55570800  0.44429200  0.44711900
   0.55570700  0.77808200  0.44711900
   0.88797300  0.11202700  0.44390100
   0.88797300  0.44261300  0.44390100
   0.89076200  0.77871400  0.44331600
   0.44444400  0.55555500  0.58412900
