ESCALE ; pCOHP file generated by LOBSTER. Energy is shifted such that the Fermi level lies at 0 eV.
         2          2        301  -1.24746e+01   2.57553e+00  -2.44119e+00 
Average
No.1:Mo31->Ag45(2.9973461925915355)
-10.03344   0.00000  -0.80207   0.00000  -0.80207   0.00000  -0.80804   0.00000  -0.80804
 -9.98328   0.00000  -0.80207   0.00000  -0.80207   0.00000  -0.80804   0.00000  -0.80804
 -9.93311   0.00000  -0.80207   0.00000  -0.80207   0.00000  -0.80804   0.00000  -0.80804
 -9.88294   0.00000  -0.80207   0.00000  -0.80207   0.00000  -0.80804   0.00000  -0.80804
 -9.83278   0.00000  -0.80207   0.00000  -0.80207   0.00000  -0.80804   0.00000  -0.80804
 -9.78261   0.00000  -0.80207   0.00000  -0.80207   0.00000  -0.80804   0.00000  -0.80804
 -9.73244   0.00000  -0.80207   0.00000  -0.80207   0.00000  -0.80804   0.00000  -0.80804
 -9.68227   0.00000  -0.80207   0.00000  -0.80207  -0.00000  -0.80804  -0.00000  -0.80804
 -9.63211   0.00000  -0.80207   0.00000  -0.80207  -0.00000  -0.80804  -0.00000  -0.80804
 -9.58194   0.00000  -0.80207   0.00000  -0.80207   0.00000  -0.80804   0.00000  -0.80804
 -9.53177   0.00000  -0.80207   0.00000  -0.80207   0.00000  -0.80804   0.00000  -0.80804
 -9.48161   0.00000  -0.80207   0.00000  -0.80207   0.00000  -0.80804   0.00000  -0.80804
 -9.43144   0.00000  -0.80207   0.00000  -0.80207   0.00000  -0.80804   0.00000  -0.80804
 -9.38127   0.00000  -0.80207   0.00000  -0.80207   0.00000  -0.80804   0.00000  -0.80804
 -9.33110   0.00000  -0.80207   0.00000  -0.80207   0.00000  -0.80804   0.00000  -0.80804
 -9.28094   0.00000  -0.80207   0.00000  -0.80207   0.00000  -0.80804   0.00000  -0.80804
 -9.23077   0.00000  -0.80207   0.00000  -0.80207   0.00000  -0.80804   0.00000  -0.80804
 -9.18060   0.00000  -0.80207   0.00000  -0.80207   0.00000  -0.80804   0.00000  -0.80804
 -9.13043   0.00000  -0.80207   0.00000  -0.80207   0.00000  -0.80804   0.00000  -0.80804
 -9.08027   0.00000  -0.80207   0.00000  -0.80207   0.00000  -0.80804   0.00000  -0.80804
 -9.03010   0.00000  -0.80207   0.00000  -0.80207   0.00000  -0.80804   0.00000  -0.80804
 -8.97993   0.00000  -0.80207   0.00000  -0.80207   0.00000  -0.80804   0.00000  -0.80804
 -8.92977   0.00000  -0.80207   0.00000  -0.80207   0.00000  -0.80804   0.00000  -0.80804
 -8.87960   0.00000  -0.80207   0.00000  -0.80207   0.00000  -0.80804   0.00000  -0.80804
 -8.82943   0.00000  -0.80207   0.00000  -0.80207   0.00000  -0.80804   0.00000  -0.80804
 -8.77926   0.00000  -0.80207   0.00000  -0.80207   0.00000  -0.80804   0.00000  -0.80804
 -8.72910   0.00000  -0.80207   0.00000  -0.80207   0.00000  -0.80804   0.00000  -0.80804
 -8.67893   0.00000  -0.80207   0.00000  -0.80207   0.00000  -0.80804   0.00000  -0.80804
 -8.62876   0.00000  -0.80207   0.00000  -0.80207   0.00000  -0.80804   0.00000  -0.80804
 -8.57860   0.00000  -0.80207   0.00000  -0.80207   0.00000  -0.80804   0.00000  -0.80804
 -8.52843   0.00000  -0.80207   0.00000  -0.80207   0.00000  -0.80804   0.00000  -0.80804
 -8.47826   0.00000  -0.80207   0.00000  -0.80207   0.00000  -0.80804   0.00000  -0.80804
 -8.42809   0.00000  -0.80207   0.00000  -0.80207  -0.00000  -0.80804  -0.00000  -0.80804
 -8.37793   0.00000  -0.80207   0.00000  -0.80207   0.00000  -0.80804   0.00000  -0.80804
 -8.32776   0.00000  -0.80207   0.00000  -0.80207   0.00000  -0.80804   0.00000  -0.80804
 -8.27759   0.00000  -0.80207   0.00000  -0.80207   0.00000  -0.80804   0.00000  -0.80804
 -8.22742   0.00000  -0.80207   0.00000  -0.80207   0.00000  -0.80804   0.00000  -0.80804
 -8.17726   0.00000  -0.80207   0.00000  -0.80207   0.00000  -0.80804   0.00000  -0.80804
 -8.12709   0.00000  -0.80207   0.00000  -0.80207   0.00000  -0.80804   0.00000  -0.80804
 -8.07692   0.00000  -0.80207   0.00000  -0.80207   0.00000  -0.80804   0.00000  -0.80804
 -8.02676   0.00000  -0.80207   0.00000  -0.80207   0.00000  -0.80804   0.00000  -0.80804
 -7.97659   0.00000  -0.80207   0.00000  -0.80207   0.00000  -0.80804   0.00000  -0.80804
 -7.92642   0.00000  -0.80207   0.00000  -0.80207   0.00000  -0.80804   0.00000  -0.80804
 -7.87625   0.00000  -0.80207   0.00000  -0.80207   0.00000  -0.80804   0.00000  -0.80804
 -7.82609   0.00000  -0.80207   0.00000  -0.80207   0.00000  -0.80804   0.00000  -0.80804
 -7.77592   0.00002  -0.80207   0.00002  -0.80207   0.00001  -0.80804   0.00001  -0.80804
 -7.72575   0.00006  -0.80207   0.00006  -0.80207   0.00005  -0.80803   0.00005  -0.80803
 -7.67559   0.00022  -0.80205   0.00022  -0.80205   0.00019  -0.80802   0.00019  -0.80802
 -7.62542   0.00069  -0.80202   0.00069  -0.80202   0.00061  -0.80799   0.00061  -0.80799
 -7.57525   0.00192  -0.80192   0.00192  -0.80192   0.00176  -0.80790   0.00176  -0.80790
 -7.52508   0.00478  -0.80168   0.00478  -0.80168   0.00450  -0.80768   0.00450  -0.80768
 -7.47492   0.01057  -0.80115   0.01057  -0.80115   0.01017  -0.80717   0.01017  -0.80717
 -7.42475   0.02074  -0.80011   0.02074  -0.80011   0.02035  -0.80615   0.02035  -0.80615
 -7.37458   0.03603  -0.79831   0.03603  -0.79831   0.03598  -0.80434   0.03598  -0.80434
 -7.32441   0.05524  -0.79553   0.05524  -0.79553   0.05610  -0.80153   0.05610  -0.80153
 -7.27425   0.07444  -0.79180   0.07444  -0.79180   0.07689  -0.79767   0.07689  -0.79767
 -7.22408   0.08760  -0.78741   0.08760  -0.78741   0.09224  -0.79304   0.09224  -0.79304
 -7.17391   0.08909  -0.78294   0.08909  -0.78294   0.09620  -0.78822   0.09620  -0.78822
 -7.12375   0.07669  -0.77909   0.07669  -0.77909   0.08607  -0.78390   0.08607  -0.78390
 -7.07358   0.05299  -0.77643   0.05299  -0.77643   0.06398  -0.78069   0.06398  -0.78069
 -7.02341   0.02380  -0.77524   0.02380  -0.77524   0.03546  -0.77891   0.03546  -0.77891
 -6.97324  -0.00527  -0.77550  -0.00527  -0.77550   0.00608  -0.77861   0.00608  -0.77861
 -6.92308  -0.03142  -0.77708  -0.03142  -0.77708  -0.02114  -0.77967  -0.02114  -0.77967
 -6.87291  -0.05444  -0.77981  -0.05444  -0.77981  -0.04568  -0.78196  -0.04568  -0.78196
 -6.82274  -0.07440  -0.78354  -0.07440  -0.78354  -0.06730  -0.78533  -0.06730  -0.78533
 -6.77258  -0.08986  -0.78805  -0.08986  -0.78805  -0.08437  -0.78957  -0.08437  -0.78957
 -6.72241  -0.09831  -0.79298  -0.09831  -0.79298  -0.09432  -0.79430  -0.09432  -0.79430
 -6.67224  -0.09844  -0.79792  -0.09844  -0.79792  -0.09578  -0.79910  -0.09578  -0.79910
 -6.62207  -0.09193  -0.80253  -0.09193  -0.80253  -0.09037  -0.80364  -0.09037  -0.80364
 -6.57191  -0.08315  -0.80670  -0.08315  -0.80670  -0.08240  -0.80777  -0.08240  -0.80777
 -6.52174  -0.07680  -0.81055  -0.07680  -0.81055  -0.07654  -0.81161  -0.07654  -0.81161
 -6.47157  -0.07538  -0.81434  -0.07538  -0.81434  -0.07534  -0.81539  -0.07534  -0.81539
 -6.42140  -0.07823  -0.81826  -0.07823  -0.81826  -0.07824  -0.81932  -0.07824  -0.81932
 -6.37124  -0.08276  -0.82241  -0.08276  -0.82241  -0.08280  -0.82347  -0.08280  -0.82347
 -6.32107  -0.08690  -0.82677  -0.08690  -0.82677  -0.08703  -0.82784  -0.08703  -0.82784
 -6.27090  -0.09071  -0.83132  -0.09071  -0.83132  -0.09102  -0.83240  -0.09102  -0.83240
 -6.22074  -0.09604  -0.83614  -0.09604  -0.83614  -0.09663  -0.83725  -0.09663  -0.83725
 -6.17057  -0.10471  -0.84139  -0.10471  -0.84139  -0.10560  -0.84255  -0.10560  -0.84255
 -6.12040  -0.11666  -0.84725  -0.11666  -0.84725  -0.11778  -0.84846  -0.11778  -0.84846
 -6.07023  -0.12936  -0.85374  -0.12936  -0.85374  -0.13058  -0.85501  -0.13058  -0.85501
 -6.02007  -0.13875  -0.86070  -0.13875  -0.86070  -0.13989  -0.86202  -0.13989  -0.86202
 -5.96990  -0.14070  -0.86776  -0.14070  -0.86776  -0.14158  -0.86913  -0.14158  -0.86913
 -5.91973  -0.13227  -0.87439  -0.13227  -0.87439  -0.13281  -0.87579  -0.13281  -0.87579
 -5.86957  -0.11244  -0.88003  -0.11244  -0.88003  -0.11260  -0.88144  -0.11260  -0.88144
 -5.81940  -0.08221  -0.88416  -0.08221  -0.88416  -0.08208  -0.88556  -0.08208  -0.88556
 -5.76923  -0.04463  -0.88640  -0.04463  -0.88640  -0.04434  -0.88778  -0.04434  -0.88778
 -5.71906  -0.00446  -0.88662  -0.00446  -0.88662  -0.00415  -0.88799  -0.00415  -0.88799
 -5.66890   0.03255  -0.88499   0.03255  -0.88499   0.03274  -0.88635   0.03274  -0.88635
 -5.61873   0.06095  -0.88193   0.06095  -0.88193   0.06091  -0.88329   0.06091  -0.88329
 -5.56856   0.07730  -0.87805   0.07730  -0.87805   0.07695  -0.87943   0.07695  -0.87943
 -5.51839   0.08140  -0.87397   0.08140  -0.87397   0.08070  -0.87538   0.08070  -0.87538
 -5.46823   0.07635  -0.87014   0.07635  -0.87014   0.07526  -0.87161   0.07526  -0.87161
 -5.41806   0.06708  -0.86677   0.06708  -0.86677   0.06562  -0.86831   0.06562  -0.86831
 -5.36789   0.05827  -0.86385   0.05827  -0.86385   0.05650  -0.86548   0.05650  -0.86548
 -5.31773   0.05273  -0.86120   0.05273  -0.86120   0.05074  -0.86293   0.05074  -0.86293
 -5.26756   0.05100  -0.85864   0.05100  -0.85864   0.04892  -0.86048   0.04892  -0.86048
 -5.21739   0.05184  -0.85604   0.05184  -0.85604   0.04978  -0.85798   0.04978  -0.85798
 -5.16722   0.05306  -0.85338   0.05306  -0.85338   0.05114  -0.85542   0.05114  -0.85542
 -5.11706   0.05249  -0.85075   0.05249  -0.85075   0.05078  -0.85287   0.05078  -0.85287
 -5.06689   0.04869  -0.84831   0.04869  -0.84831   0.04721  -0.85050   0.04721  -0.85050
 -5.01672   0.04138  -0.84623   0.04138  -0.84623   0.04004  -0.84849   0.04004  -0.84849
 -4.96656   0.03119  -0.84467   0.03119  -0.84467   0.02979  -0.84700   0.02979  -0.84700
 -4.91639   0.01919  -0.84370   0.01919  -0.84370   0.01746  -0.84612   0.01746  -0.84612
 -4.86622   0.00643  -0.84338   0.00643  -0.84338   0.00413  -0.84591   0.00413  -0.84591
 -4.81605  -0.00606  -0.84368  -0.00606  -0.84368  -0.00903  -0.84637  -0.00903  -0.84637
 -4.76589  -0.01722  -0.84455  -0.01722  -0.84455  -0.02080  -0.84741  -0.02080  -0.84741
 -4.71572  -0.02616  -0.84586  -0.02616  -0.84586  -0.03018  -0.84892  -0.03018  -0.84892
 -4.66555  -0.03257  -0.84750  -0.03257  -0.84750  -0.03689  -0.85078  -0.03689  -0.85078
 -4.61538  -0.03699  -0.84935  -0.03699  -0.84935  -0.04155  -0.85286  -0.04155  -0.85286
 -4.56522  -0.04058  -0.85139  -0.04058  -0.85139  -0.04541  -0.85514  -0.04541  -0.85514
 -4.51505  -0.04447  -0.85362  -0.04447  -0.85362  -0.04959  -0.85763  -0.04959  -0.85763
 -4.46488  -0.04898  -0.85608  -0.04898  -0.85608  -0.05425  -0.86035  -0.05425  -0.86035
 -4.41472  -0.05325  -0.85875  -0.05325  -0.85875  -0.05839  -0.86328  -0.05839  -0.86328
 -4.36455  -0.05568  -0.86154  -0.05568  -0.86154  -0.06033  -0.86630  -0.06033  -0.86630
 -4.31438  -0.05499  -0.86430  -0.05499  -0.86430  -0.05885  -0.86926  -0.05885  -0.86926
 -4.26421  -0.05116  -0.86687  -0.05116  -0.86687  -0.05412  -0.87197  -0.05412  -0.87197
 -4.21405  -0.04565  -0.86916  -0.04565  -0.86916  -0.04783  -0.87437  -0.04783  -0.87437
 -4.16388  -0.04049  -0.87119  -0.04049  -0.87119  -0.04214  -0.87648  -0.04214  -0.87648
 -4.11371  -0.03703  -0.87304  -0.03703  -0.87304  -0.03841  -0.87841  -0.03841  -0.87841
 -4.06355  -0.03509  -0.87480  -0.03509  -0.87480  -0.03639  -0.88024  -0.03639  -0.88024
 -4.01338  -0.03327  -0.87647  -0.03327  -0.87647  -0.03458  -0.88197  -0.03458  -0.88197
 -3.96321  -0.02993  -0.87798  -0.02993  -0.87798  -0.03127  -0.88354  -0.03127  -0.88354
 -3.91304  -0.02425  -0.87919  -0.02425  -0.87919  -0.02558  -0.88482  -0.02558  -0.88482
 -3.86288  -0.01653  -0.88002  -0.01653  -0.88002  -0.01780  -0.88572  -0.01780  -0.88572
 -3.81271  -0.00778  -0.88041  -0.00778  -0.88041  -0.00897  -0.88617  -0.00897  -0.88617
 -3.76254   0.00100  -0.88036   0.00100  -0.88036  -0.00013  -0.88617  -0.00013  -0.88617
 -3.71237   0.00926  -0.87990   0.00926  -0.87990   0.00814  -0.88576   0.00814  -0.88576
 -3.66221   0.01695  -0.87905   0.01695  -0.87905   0.01577  -0.88497   0.01577  -0.88497
 -3.61204   0.02407  -0.87784   0.02407  -0.87784   0.02281  -0.88383   0.02281  -0.88383
 -3.56187   0.03043  -0.87631   0.03043  -0.87631   0.02910  -0.88237   0.02910  -0.88237
 -3.51171   0.03556  -0.87453   0.03556  -0.87453   0.03424  -0.88065   0.03424  -0.88065
 -3.46154   0.03902  -0.87257   0.03902  -0.87257   0.03780  -0.87876   0.03780  -0.87876
 -3.41137   0.04064  -0.87053   0.04064  -0.87053   0.03958  -0.87677   0.03958  -0.87677
 -3.36120   0.04065  -0.86849   0.04065  -0.86849   0.03975  -0.87478   0.03975  -0.87478
 -3.31104   0.03950  -0.86651   0.03950  -0.86651   0.03872  -0.87283   0.03872  -0.87283
 -3.26087   0.03762  -0.86462   0.03762  -0.86462   0.03688  -0.87098   0.03688  -0.87098
 -3.21070   0.03515  -0.86286   0.03515  -0.86286   0.03439  -0.86926   0.03439  -0.86926
 -3.16054   0.03202  -0.86125   0.03202  -0.86125   0.03120  -0.86769   0.03120  -0.86769
 -3.11037   0.02811  -0.85984   0.02811  -0.85984   0.02725  -0.86633   0.02725  -0.86633
 -3.06020   0.02345  -0.85867   0.02345  -0.85867   0.02260  -0.86519   0.02260  -0.86519
 -3.01003   0.01825  -0.85775   0.01825  -0.85775   0.01745  -0.86432   0.01745  -0.86432
 -2.95987   0.01274  -0.85711   0.01274  -0.85711   0.01200  -0.86371   0.01200  -0.86371
 -2.90970   0.00712  -0.85675   0.00712  -0.85675   0.00641  -0.86339   0.00641  -0.86339
 -2.85953   0.00160  -0.85667   0.00160  -0.85667   0.00084  -0.86335   0.00084  -0.86335
 -2.80936  -0.00349  -0.85685  -0.00349  -0.85685  -0.00438  -0.86357  -0.00438  -0.86357
 -2.75920  -0.00759  -0.85723  -0.00759  -0.85723  -0.00866  -0.86400  -0.00866  -0.86400
 -2.70903  -0.01002  -0.85773  -0.01002  -0.85773  -0.01124  -0.86457  -0.01124  -0.86457
 -2.65886  -0.01034  -0.85825  -0.01034  -0.85825  -0.01163  -0.86515  -0.01163  -0.86515
 -2.60870  -0.00859  -0.85868  -0.00859  -0.85868  -0.00987  -0.86565  -0.00987  -0.86565
 -2.55853  -0.00543  -0.85895  -0.00543  -0.85895  -0.00662  -0.86598  -0.00662  -0.86598
 -2.50836  -0.00187  -0.85905  -0.00187  -0.85905  -0.00296  -0.86613  -0.00296  -0.86613
 -2.45819   0.00106  -0.85900   0.00106  -0.85900   0.00001  -0.86613   0.00001  -0.86613
 -2.40803   0.00260  -0.85887   0.00260  -0.85887   0.00155  -0.86605   0.00155  -0.86605
 -2.35786   0.00254  -0.85874   0.00254  -0.85874   0.00144  -0.86598   0.00144  -0.86598
 -2.30769   0.00126  -0.85867   0.00126  -0.85867   0.00010  -0.86597   0.00010  -0.86597
 -2.25753  -0.00040  -0.85869  -0.00040  -0.85869  -0.00163  -0.86605  -0.00163  -0.86605
 -2.20736  -0.00146  -0.85877  -0.00146  -0.85877  -0.00273  -0.86619  -0.00273  -0.86619
 -2.15719  -0.00121  -0.85883  -0.00121  -0.85883  -0.00252  -0.86632  -0.00252  -0.86632
 -2.10702   0.00048  -0.85880   0.00048  -0.85880  -0.00084  -0.86636  -0.00084  -0.86636
 -2.05686   0.00313  -0.85865   0.00313  -0.85865   0.00178  -0.86627   0.00178  -0.86627
 -2.00669   0.00579  -0.85836   0.00579  -0.85836   0.00439  -0.86605   0.00439  -0.86605
 -1.95652   0.00733  -0.85799   0.00733  -0.85799   0.00586  -0.86576   0.00586  -0.86576
 -1.90635   0.00672  -0.85765   0.00672  -0.85765   0.00518  -0.86550   0.00518  -0.86550
 -1.85619   0.00314  -0.85749   0.00314  -0.85749   0.00157  -0.86542   0.00157  -0.86542
 -1.80602  -0.00387  -0.85769  -0.00387  -0.85769  -0.00540  -0.86569  -0.00540  -0.86569
 -1.75585  -0.01419  -0.85840  -0.01419  -0.85840  -0.01559  -0.86647  -0.01559  -0.86647
 -1.70569  -0.02678  -0.85974  -0.02678  -0.85974  -0.02796  -0.86787  -0.02796  -0.86787
 -1.65552  -0.03946  -0.86172  -0.03946  -0.86172  -0.04035  -0.86990  -0.04035  -0.86990
 -1.60535  -0.04922  -0.86419  -0.04922  -0.86419  -0.04976  -0.87239  -0.04976  -0.87239
 -1.55518  -0.05320  -0.86686  -0.05320  -0.86686  -0.05337  -0.87507  -0.05337  -0.87507
 -1.50502  -0.04998  -0.86937  -0.04998  -0.86937  -0.04979  -0.87757  -0.04979  -0.87757
 -1.45485  -0.04028  -0.87139  -0.04028  -0.87139  -0.03976  -0.87956  -0.03976  -0.87956
 -1.40468  -0.02662  -0.87273  -0.02662  -0.87273  -0.02582  -0.88086  -0.02582  -0.88086
 -1.35452  -0.01211  -0.87333  -0.01211  -0.87333  -0.01108  -0.88141  -0.01108  -0.88141
 -1.30435   0.00072  -0.87330   0.00072  -0.87330   0.00192  -0.88132   0.00192  -0.88132
 -1.25418   0.01042  -0.87278   0.01042  -0.87278   0.01173  -0.88073   0.01173  -0.88073
 -1.20401   0.01644  -0.87195   0.01644  -0.87195   0.01777  -0.87984   0.01777  -0.87984
 -1.15385   0.01884  -0.87101   0.01884  -0.87101   0.02009  -0.87883   0.02009  -0.87883
 -1.10368   0.01816  -0.87009   0.01816  -0.87009   0.01923  -0.87787   0.01923  -0.87787
 -1.05351   0.01540  -0.86932   0.01540  -0.86932   0.01623  -0.87705   0.01623  -0.87705
 -1.00334   0.01181  -0.86873   0.01181  -0.86873   0.01239  -0.87643   0.01239  -0.87643
 -0.95318   0.00855  -0.86830   0.00855  -0.86830   0.00891  -0.87598   0.00891  -0.87598
 -0.90301   0.00624  -0.86799   0.00624  -0.86799   0.00644  -0.87566   0.00644  -0.87566
 -0.85284   0.00488  -0.86774   0.00488  -0.86774   0.00500  -0.87541   0.00500  -0.87541
 -0.80268   0.00400  -0.86754   0.00400  -0.86754   0.00413  -0.87520   0.00413  -0.87520
 -0.75251   0.00303  -0.86739   0.00303  -0.86739   0.00323  -0.87504   0.00323  -0.87504
 -0.70234   0.00150  -0.86731   0.00150  -0.86731   0.00182  -0.87495   0.00182  -0.87495
 -0.65217  -0.00076  -0.86735  -0.00076  -0.86735  -0.00030  -0.87496  -0.00030  -0.87496
 -0.60201  -0.00361  -0.86753  -0.00361  -0.86753  -0.00304  -0.87512  -0.00304  -0.87512
 -0.55184  -0.00659  -0.86786  -0.00659  -0.86786  -0.00596  -0.87541  -0.00596  -0.87541
 -0.50167  -0.00906  -0.86832  -0.00906  -0.86832  -0.00850  -0.87584  -0.00850  -0.87584
 -0.45151  -0.01046  -0.86884  -0.01046  -0.86884  -0.01006  -0.87635  -0.01006  -0.87635
 -0.40134  -0.01040  -0.86937  -0.01040  -0.86937  -0.01023  -0.87686  -0.01023  -0.87686
 -0.35117  -0.00870  -0.86980  -0.00870  -0.86980  -0.00875  -0.87730  -0.00875  -0.87730
 -0.30100  -0.00512  -0.87006  -0.00512  -0.87006  -0.00536  -0.87757  -0.00536  -0.87757
 -0.25084   0.00068  -0.87002   0.00068  -0.87002   0.00035  -0.87755   0.00035  -0.87755
 -0.20067   0.00902  -0.86957   0.00902  -0.86957   0.00867  -0.87711   0.00867  -0.87711
 -0.15050   0.01957  -0.86859   0.01957  -0.86859   0.01929  -0.87615   0.01929  -0.87615
 -0.10033   0.03097  -0.86704   0.03097  -0.86704   0.03080  -0.87460   0.03080  -0.87460
 -0.05017   0.04096  -0.86498   0.04096  -0.86498   0.04090  -0.87255   0.04090  -0.87255
 -0.00000   0.04739  -0.86260   0.04739  -0.86260   0.04741  -0.87017   0.04741  -0.87017
  0.05017   0.04959  -0.86012   0.04959  -0.86012   0.04964  -0.86768   0.04964  -0.86768
  0.10033   0.04906  -0.85766   0.04906  -0.85766   0.04909  -0.86522   0.04909  -0.86522
  0.15050   0.04900  -0.85520   0.04900  -0.85520   0.04895  -0.86276   0.04895  -0.86276
  0.20067   0.05258  -0.85256   0.05258  -0.85256   0.05239  -0.86013   0.05239  -0.86013
  0.25084   0.06108  -0.84950   0.06108  -0.84950   0.06070  -0.85709   0.06070  -0.85709
  0.30100   0.07289  -0.84584   0.07289  -0.84584   0.07232  -0.85346   0.07232  -0.85346
  0.35117   0.08426  -0.84161   0.08426  -0.84161   0.08355  -0.84927   0.08355  -0.84927
  0.40134   0.09115  -0.83704   0.09115  -0.83704   0.09043  -0.84473   0.09043  -0.84473
  0.45151   0.09130  -0.83246   0.09130  -0.83246   0.09075  -0.84018   0.09075  -0.84018
  0.50167   0.08505  -0.82819   0.08505  -0.82819   0.08486  -0.83592   0.08486  -0.83592
  0.55184   0.07464  -0.82445   0.07464  -0.82445   0.07492  -0.83216   0.07492  -0.83216
  0.60201   0.06263  -0.82130   0.06263  -0.82130   0.06336  -0.82898   0.06336  -0.82898
  0.65217   0.05070  -0.81876   0.05070  -0.81876   0.05175  -0.82639   0.05175  -0.82639
  0.70234   0.03952  -0.81678   0.03952  -0.81678   0.04069  -0.82435   0.04069  -0.82435
  0.75251   0.02933  -0.81531   0.02933  -0.81531   0.03043  -0.82282   0.03043  -0.82282
  0.80268   0.02050  -0.81428   0.02050  -0.81428   0.02139  -0.82175   0.02139  -0.82175
  0.85284   0.01355  -0.81360   0.01355  -0.81360   0.01419  -0.82103   0.01419  -0.82103
  0.90301   0.00899  -0.81315   0.00899  -0.81315   0.00942  -0.82056   0.00942  -0.82056
  0.95318   0.00705  -0.81279   0.00705  -0.81279   0.00734  -0.82019   0.00734  -0.82019
  1.00334   0.00770  -0.81241   0.00770  -0.81241   0.00791  -0.81980   0.00791  -0.81980
  1.05351   0.01073  -0.81187   0.01073  -0.81187   0.01090  -0.81925   0.01090  -0.81925
  1.10368   0.01573  -0.81108   0.01573  -0.81108   0.01588  -0.81845   0.01588  -0.81845
  1.15385   0.02191  -0.80998   0.02191  -0.80998   0.02203  -0.81735   0.02203  -0.81735
  1.20401   0.02799  -0.80858   0.02799  -0.80858   0.02807  -0.81594   0.02807  -0.81594
  1.25418   0.03237  -0.80695   0.03237  -0.80695   0.03243  -0.81431   0.03243  -0.81431
  1.30435   0.03373  -0.80526   0.03373  -0.80526   0.03380  -0.81262   0.03380  -0.81262
  1.35452   0.03166  -0.80367   0.03166  -0.80367   0.03176  -0.81102   0.03176  -0.81102
  1.40468   0.02695  -0.80232   0.02695  -0.80232   0.02711  -0.80966   0.02711  -0.80966
  1.45485   0.02124  -0.80125   0.02124  -0.80125   0.02149  -0.80859   0.02149  -0.80859
  1.50502   0.01634  -0.80044   0.01634  -0.80044   0.01668  -0.80775   0.01668  -0.80775
  1.55518   0.01358  -0.79975   0.01358  -0.79975   0.01398  -0.80705   0.01398  -0.80705
  1.60535   0.01353  -0.79908   0.01353  -0.79908   0.01399  -0.80635   0.01399  -0.80635
  1.65552   0.01618  -0.79826   0.01618  -0.79826   0.01670  -0.80551   0.01670  -0.80551
  1.70569   0.02101  -0.79721   0.02101  -0.79721   0.02160  -0.80443   0.02160  -0.80443
  1.75585   0.02717  -0.79585   0.02717  -0.79585   0.02784  -0.80303   0.02784  -0.80303
  1.80602   0.03362  -0.79416   0.03362  -0.79416   0.03435  -0.80131   0.03435  -0.80131
  1.85619   0.03964  -0.79217   0.03964  -0.79217   0.04038  -0.79928   0.04038  -0.79928
  1.90635   0.04536  -0.78990   0.04536  -0.78990   0.04603  -0.79697   0.04603  -0.79697
  1.95652   0.05205  -0.78728   0.05205  -0.78728   0.05256  -0.79433   0.05256  -0.79433
  2.00669   0.06168  -0.78419   0.06168  -0.78419   0.06196  -0.79123   0.06196  -0.79123
  2.05686   0.07600  -0.78038   0.07600  -0.78038   0.07599  -0.78741   0.07599  -0.78741
  2.10702   0.09525  -0.77560   0.09525  -0.77560   0.09492  -0.78265   0.09492  -0.78265
  2.15719   0.11743  -0.76971   0.11743  -0.76971   0.11674  -0.77680   0.11674  -0.77680
  2.20736   0.13850  -0.76276   0.13850  -0.76276   0.13742  -0.76990   0.13742  -0.76990
  2.25753   0.15382  -0.75504   0.15382  -0.75504   0.15232  -0.76226   0.15232  -0.76226
  2.30769   0.16011  -0.74701   0.16011  -0.74701   0.15821  -0.75432   0.15821  -0.75432
  2.35786   0.15678  -0.73915   0.15678  -0.73915   0.15456  -0.74657   0.15456  -0.74657
  2.40803   0.14580  -0.73183   0.14580  -0.73183   0.14336  -0.73938   0.14336  -0.73938
  2.45819   0.13047  -0.72529   0.13047  -0.72529   0.12793  -0.73296   0.12793  -0.73296
  2.50836   0.11400  -0.71957   0.11400  -0.71957   0.11150  -0.72737   0.11150  -0.72737
  2.55853   0.09875  -0.71461   0.09875  -0.71461   0.09639  -0.72253   0.09639  -0.72253
  2.60870   0.08579  -0.71031   0.08579  -0.71031   0.08365  -0.71833   0.08365  -0.71833
  2.65886   0.07494  -0.70655   0.07494  -0.70655   0.07307  -0.71467   0.07307  -0.71467
  2.70903   0.06514  -0.70328   0.06514  -0.70328   0.06354  -0.71148   0.06354  -0.71148
  2.75920   0.05514  -0.70052   0.05514  -0.70052   0.05382  -0.70878   0.05382  -0.70878
  2.80936   0.04436  -0.69829   0.04436  -0.69829   0.04326  -0.70661   0.04326  -0.70661
  2.85953   0.03325  -0.69662   0.03325  -0.69662   0.03235  -0.70499   0.03235  -0.70499
  2.90970   0.02319  -0.69546   0.02319  -0.69546   0.02244  -0.70386   0.02244  -0.70386
  2.95987   0.01574  -0.69467   0.01574  -0.69467   0.01507  -0.70310   0.01507  -0.70310
  3.01003   0.01188  -0.69407   0.01188  -0.69407   0.01124  -0.70254   0.01124  -0.70254
  3.06020   0.01166  -0.69349   0.01166  -0.69349   0.01097  -0.70199   0.01097  -0.70199
  3.11037   0.01425  -0.69277   0.01425  -0.69277   0.01349  -0.70131   0.01349  -0.70131
  3.16054   0.01854  -0.69184   0.01854  -0.69184   0.01772  -0.70043   0.01772  -0.70043
  3.21070   0.02373  -0.69065   0.02373  -0.69065   0.02291  -0.69928   0.02291  -0.69928
  3.26087   0.02964  -0.68916   0.02964  -0.68916   0.02889  -0.69783   0.02889  -0.69783
  3.31104   0.03649  -0.68733   0.03649  -0.68733   0.03589  -0.69603   0.03589  -0.69603
  3.36120   0.04427  -0.68511   0.04427  -0.68511   0.04385  -0.69383   0.04385  -0.69383
  3.41137   0.05214  -0.68250   0.05214  -0.68250   0.05186  -0.69122   0.05186  -0.69122
  3.46154   0.05827  -0.67957   0.05827  -0.67957   0.05808  -0.68831   0.05808  -0.68831
  3.51171   0.06063  -0.67653   0.06063  -0.67653   0.06047  -0.68528   0.06047  -0.68528
  3.56187   0.05815  -0.67362   0.05815  -0.67362   0.05797  -0.68237   0.05797  -0.68237
  3.61204   0.05154  -0.67103   0.05154  -0.67103   0.05131  -0.67980   0.05131  -0.67980
  3.66221   0.04318  -0.66886   0.04318  -0.66886   0.04285  -0.67765   0.04285  -0.67765
  3.71237   0.03601  -0.66706   0.03601  -0.66706   0.03554  -0.67586   0.03554  -0.67586
  3.76254   0.03236  -0.66543   0.03236  -0.66543   0.03173  -0.67427   0.03173  -0.67427
  3.81271   0.03337  -0.66376   0.03337  -0.66376   0.03256  -0.67264   0.03256  -0.67264
  3.86288   0.03924  -0.66179   0.03924  -0.66179   0.03831  -0.67072   0.03831  -0.67072
  3.91304   0.04990  -0.65929   0.04990  -0.65929   0.04889  -0.66826   0.04889  -0.66826
  3.96321   0.06556  -0.65600   0.06556  -0.65600   0.06453  -0.66503   0.06453  -0.66503
  4.01338   0.08691  -0.65164   0.08691  -0.65164   0.08586  -0.66072   0.08586  -0.66072
  4.06355   0.11475  -0.64588   0.11475  -0.64588   0.11365  -0.65502   0.11365  -0.65502
  4.11371   0.14878  -0.63842   0.14878  -0.63842   0.14755  -0.64761   0.14755  -0.64761
  4.16388   0.18599  -0.62909   0.18599  -0.62909   0.18455  -0.63836   0.18455  -0.63836
  4.21405   0.21983  -0.61806   0.21983  -0.61806   0.21811  -0.62741   0.21811  -0.62741
  4.26421   0.24169  -0.60593   0.24169  -0.60593   0.23970  -0.61539   0.23970  -0.61539
  4.31438   0.24472  -0.59366   0.24472  -0.59366   0.24252  -0.60322   0.24252  -0.60322
  4.36455   0.22788  -0.58223   0.22788  -0.58223   0.22556  -0.59191   0.22556  -0.59191
  4.41472   0.19731  -0.57233   0.19731  -0.57233   0.19493  -0.58213   0.19493  -0.58213
  4.46488   0.16396  -0.56410   0.16396  -0.56410   0.16146  -0.57403   0.16146  -0.57403
  4.51505   0.13883  -0.55714   0.13883  -0.55714   0.13606  -0.56720   0.13606  -0.56720
  4.56522   0.12879  -0.55068   0.12879  -0.55068   0.12556  -0.56090   0.12556  -0.56090
  4.61538   0.13504  -0.54390   0.13504  -0.54390   0.13116  -0.55432   0.13116  -0.55432
  4.66555   0.15408  -0.53617   0.15408  -0.53617   0.14952  -0.54682   0.14952  -0.54682
  4.71572   0.18006  -0.52714   0.18006  -0.52714   0.17496  -0.53804   0.17496  -0.53804
  4.76589   0.20665  -0.51677   0.20665  -0.51677   0.20132  -0.52794   0.20132  -0.52794
  4.81605   0.22804  -0.50533   0.22804  -0.50533   0.22288  -0.51676   0.22288  -0.51676
  4.86622   0.23950  -0.49332   0.23950  -0.49332   0.23489  -0.50498   0.23489  -0.50498
  4.91639   0.23839  -0.48136   0.23839  -0.48136   0.23458  -0.49321   0.23458  -0.49321
  4.96656   0.22541  -0.47005   0.22541  -0.47005   0.22245  -0.48205   0.22245  -0.48205
  5.01672   0.20507  -0.45976   0.20507  -0.45976   0.20285  -0.47188   0.20285  -0.47188