ESCALE ; pCOOP file generated by LOBSTER. Energy is shifted such that the Fermi level lies at 0 eV.
         2          2        301  -1.24746e+01   2.57553e+00  -2.44119e+00 
Average
No.1:Mo31->Ag45(2.9973461925915355)
-10.03344   0.00000  -0.47676   0.00000  -0.47676   0.00000  -0.47660   0.00000  -0.47660
 -9.98328   0.00000  -0.47676   0.00000  -0.47676   0.00000  -0.47660   0.00000  -0.47660
 -9.93311   0.00000  -0.47676   0.00000  -0.47676   0.00000  -0.47660   0.00000  -0.47660
 -9.88294   0.00000  -0.47676   0.00000  -0.47676   0.00000  -0.47660   0.00000  -0.47660
 -9.83278   0.00000  -0.47676   0.00000  -0.47676   0.00000  -0.47660   0.00000  -0.47660
 -9.78261   0.00000  -0.47676   0.00000  -0.47676   0.00000  -0.47660   0.00000  -0.47660
 -9.73244   0.00000  -0.47676   0.00000  -0.47676   0.00000  -0.47660   0.00000  -0.47660
 -9.68227   0.00000  -0.47676   0.00000  -0.47676   0.00000  -0.47660   0.00000  -0.47660
 -9.63211  -0.00000  -0.47676  -0.00000  -0.47676   0.00000  -0.47660   0.00000  -0.47660
 -9.58194   0.00000  -0.47676   0.00000  -0.47676   0.00000  -0.47660   0.00000  -0.47660
 -9.53177   0.00000  -0.47676   0.00000  -0.47676   0.00000  -0.47660   0.00000  -0.47660
 -9.48161   0.00000  -0.47676   0.00000  -0.47676   0.00000  -0.47660   0.00000  -0.47660
 -9.43144   0.00000  -0.47676   0.00000  -0.47676   0.00000  -0.47660   0.00000  -0.47660
 -9.38127   0.00000  -0.47676   0.00000  -0.47676   0.00000  -0.47660   0.00000  -0.47660
 -9.33110   0.00000  -0.47676   0.00000  -0.47676   0.00000  -0.47660   0.00000  -0.47660
 -9.28094   0.00000  -0.47676   0.00000  -0.47676   0.00000  -0.47660   0.00000  -0.47660
 -9.23077   0.00000  -0.47676   0.00000  -0.47676   0.00000  -0.47660   0.00000  -0.47660
 -9.18060   0.00000  -0.47676   0.00000  -0.47676   0.00000  -0.47660   0.00000  -0.47660
 -9.13043   0.00000  -0.47676   0.00000  -0.47676   0.00000  -0.47660   0.00000  -0.47660
 -9.08027   0.00000  -0.47676   0.00000  -0.47676   0.00000  -0.47660   0.00000  -0.47660
 -9.03010   0.00000  -0.47676   0.00000  -0.47676   0.00000  -0.47660   0.00000  -0.47660
 -8.97993   0.00000  -0.47676   0.00000  -0.47676   0.00000  -0.47660   0.00000  -0.47660
 -8.92977   0.00000  -0.47676   0.00000  -0.47676   0.00000  -0.47660   0.00000  -0.47660
 -8.87960   0.00000  -0.47676   0.00000  -0.47676   0.00000  -0.47660   0.00000  -0.47660
 -8.82943   0.00000  -0.47676   0.00000  -0.47676   0.00000  -0.47660   0.00000  -0.47660
 -8.77926   0.00000  -0.47676   0.00000  -0.47676   0.00000  -0.47660   0.00000  -0.47660
 -8.72910   0.00000  -0.47676   0.00000  -0.47676   0.00000  -0.47660   0.00000  -0.47660
 -8.67893   0.00000  -0.47676   0.00000  -0.47676   0.00000  -0.47660   0.00000  -0.47660
 -8.62876   0.00000  -0.47676   0.00000  -0.47676   0.00000  -0.47660   0.00000  -0.47660
 -8.57860   0.00000  -0.47676   0.00000  -0.47676   0.00000  -0.47660   0.00000  -0.47660
 -8.52843   0.00000  -0.47676   0.00000  -0.47676   0.00000  -0.47660   0.00000  -0.47660
 -8.47826   0.00000  -0.47676   0.00000  -0.47676   0.00000  -0.47660   0.00000  -0.47660
 -8.42809  -0.00000  -0.47676  -0.00000  -0.47676  -0.00000  -0.47660  -0.00000  -0.47660
 -8.37793  -0.00000  -0.47676  -0.00000  -0.47676  -0.00000  -0.47660  -0.00000  -0.47660
 -8.32776  -0.00000  -0.47676  -0.00000  -0.47676  -0.00000  -0.47660  -0.00000  -0.47660
 -8.27759  -0.00000  -0.47676  -0.00000  -0.47676  -0.00000  -0.47660  -0.00000  -0.47660
 -8.22742  -0.00000  -0.47676  -0.00000  -0.47676  -0.00000  -0.47660  -0.00000  -0.47660
 -8.17726  -0.00000  -0.47676  -0.00000  -0.47676  -0.00000  -0.47660  -0.00000  -0.47660
 -8.12709  -0.00000  -0.47676  -0.00000  -0.47676  -0.00000  -0.47660  -0.00000  -0.47660
 -8.07692  -0.00000  -0.47676  -0.00000  -0.47676  -0.00000  -0.47660  -0.00000  -0.47660
 -8.02676  -0.00000  -0.47676  -0.00000  -0.47676  -0.00000  -0.47660  -0.00000  -0.47660
 -7.97659  -0.00000  -0.47676  -0.00000  -0.47676  -0.00000  -0.47660  -0.00000  -0.47660
 -7.92642  -0.00000  -0.47676  -0.00000  -0.47676  -0.00000  -0.47660  -0.00000  -0.47660
 -7.87625  -0.00000  -0.47676  -0.00000  -0.47676  -0.00000  -0.47660  -0.00000  -0.47660
 -7.82609  -0.00000  -0.47676  -0.00000  -0.47676  -0.00000  -0.47660  -0.00000  -0.47660
 -7.77592  -0.00000  -0.47676  -0.00000  -0.47676  -0.00000  -0.47660  -0.00000  -0.47660
 -7.72575  -0.00000  -0.47676  -0.00000  -0.47676  -0.00000  -0.47660  -0.00000  -0.47660
 -7.67559  -0.00001  -0.47676  -0.00001  -0.47676  -0.00001  -0.47660  -0.00001  -0.47660
 -7.62542  -0.00001  -0.47676  -0.00001  -0.47676  -0.00000  -0.47660  -0.00000  -0.47660
 -7.57525   0.00002  -0.47676   0.00002  -0.47676   0.00003  -0.47660   0.00003  -0.47660
 -7.52508   0.00015  -0.47675   0.00015  -0.47675   0.00015  -0.47659   0.00015  -0.47659
 -7.47492   0.00049  -0.47672   0.00049  -0.47672   0.00050  -0.47657   0.00050  -0.47657
 -7.42475   0.00124  -0.47666   0.00124  -0.47666   0.00125  -0.47651   0.00125  -0.47651
 -7.37458   0.00253  -0.47653   0.00253  -0.47653   0.00253  -0.47638   0.00253  -0.47638
 -7.32441   0.00425  -0.47632   0.00425  -0.47632   0.00423  -0.47617   0.00423  -0.47617
 -7.27425   0.00592  -0.47602   0.00592  -0.47602   0.00586  -0.47587   0.00586  -0.47587
 -7.22408   0.00667  -0.47569   0.00667  -0.47569   0.00656  -0.47554   0.00656  -0.47554
 -7.17391   0.00564  -0.47541   0.00564  -0.47541   0.00547  -0.47527   0.00547  -0.47527
 -7.12375   0.00243  -0.47529   0.00243  -0.47529   0.00220  -0.47516   0.00220  -0.47516
 -7.07358  -0.00251  -0.47541  -0.00251  -0.47541  -0.00278  -0.47530  -0.00278  -0.47530
 -7.02341  -0.00807  -0.47582  -0.00807  -0.47582  -0.00835  -0.47572  -0.00835  -0.47572
 -6.97324  -0.01299  -0.47647  -0.01299  -0.47647  -0.01328  -0.47638  -0.01328  -0.47638
 -6.92308  -0.01646  -0.47729  -0.01646  -0.47729  -0.01673  -0.47722  -0.01673  -0.47722
 -6.87291  -0.01819  -0.47821  -0.01819  -0.47821  -0.01844  -0.47815  -0.01844  -0.47815
 -6.82274  -0.01833  -0.47913  -0.01833  -0.47913  -0.01854  -0.47908  -0.01854  -0.47908
 -6.77258  -0.01720  -0.47999  -0.01720  -0.47999  -0.01738  -0.47995  -0.01738  -0.47995
 -6.72241  -0.01528  -0.48076  -0.01528  -0.48076  -0.01544  -0.48072  -0.01544  -0.48072
 -6.67224  -0.01326  -0.48142  -0.01326  -0.48142  -0.01338  -0.48139  -0.01338  -0.48139
 -6.62207  -0.01188  -0.48202  -0.01188  -0.48202  -0.01197  -0.48199  -0.01197  -0.48199
 -6.57191  -0.01169  -0.48260  -0.01169  -0.48260  -0.01174  -0.48258  -0.01174  -0.48258
 -6.52174  -0.01274  -0.48324  -0.01274  -0.48324  -0.01278  -0.48322  -0.01278  -0.48322
 -6.47157  -0.01453  -0.48397  -0.01453  -0.48397  -0.01456  -0.48395  -0.01456  -0.48395
 -6.42140  -0.01616  -0.48478  -0.01616  -0.48478  -0.01618  -0.48477  -0.01618  -0.48477
 -6.37124  -0.01676  -0.48562  -0.01676  -0.48562  -0.01677  -0.48561  -0.01677  -0.48561
 -6.32107  -0.01591  -0.48642  -0.01591  -0.48642  -0.01592  -0.48641  -0.01592  -0.48641
 -6.27090  -0.01390  -0.48712  -0.01390  -0.48712  -0.01390  -0.48710  -0.01390  -0.48710
 -6.22074  -0.01150  -0.48770  -0.01150  -0.48770  -0.01149  -0.48768  -0.01149  -0.48768
 -6.17057  -0.00958  -0.48818  -0.00958  -0.48818  -0.00957  -0.48816  -0.00957  -0.48816
 -6.12040  -0.00865  -0.48861  -0.00865  -0.48861  -0.00862  -0.48859  -0.00862  -0.48859
 -6.07023  -0.00861  -0.48904  -0.00861  -0.48904  -0.00858  -0.48902  -0.00858  -0.48902
 -6.02007  -0.00895  -0.48949  -0.00895  -0.48949  -0.00892  -0.48947  -0.00892  -0.48947
 -5.96990  -0.00906  -0.48995  -0.00906  -0.48995  -0.00903  -0.48993  -0.00903  -0.48993
 -5.91973  -0.00857  -0.49038  -0.00857  -0.49038  -0.00855  -0.49035  -0.00855  -0.49035
 -5.86957  -0.00750  -0.49075  -0.00750  -0.49075  -0.00749  -0.49073  -0.00749  -0.49073
 -5.81940  -0.00611  -0.49106  -0.00611  -0.49106  -0.00611  -0.49104  -0.00611  -0.49104
 -5.76923  -0.00473  -0.49130  -0.00473  -0.49130  -0.00473  -0.49127  -0.00473  -0.49127
 -5.71906  -0.00355  -0.49147  -0.00355  -0.49147  -0.00357  -0.49145  -0.00357  -0.49145
 -5.66890  -0.00270  -0.49161  -0.00270  -0.49161  -0.00272  -0.49159  -0.00272  -0.49159
 -5.61873  -0.00220  -0.49172  -0.00220  -0.49172  -0.00222  -0.49170  -0.00222  -0.49170
 -5.56856  -0.00209  -0.49182  -0.00209  -0.49182  -0.00211  -0.49181  -0.00211  -0.49181
 -5.51839  -0.00238  -0.49194  -0.00238  -0.49194  -0.00239  -0.49193  -0.00239  -0.49193
 -5.46823  -0.00301  -0.49209  -0.00301  -0.49209  -0.00303  -0.49208  -0.00303  -0.49208
 -5.41806  -0.00391  -0.49229  -0.00391  -0.49229  -0.00392  -0.49228  -0.00392  -0.49228
 -5.36789  -0.00489  -0.49254  -0.00489  -0.49254  -0.00491  -0.49252  -0.00491  -0.49252
 -5.31773  -0.00581  -0.49283  -0.00581  -0.49283  -0.00583  -0.49281  -0.00583  -0.49281
 -5.26756  -0.00653  -0.49316  -0.00653  -0.49316  -0.00655  -0.49314  -0.00655  -0.49314
 -5.21739  -0.00701  -0.49351  -0.00701  -0.49351  -0.00702  -0.49349  -0.00702  -0.49349
 -5.16722  -0.00729  -0.49387  -0.00729  -0.49387  -0.00730  -0.49386  -0.00730  -0.49386
 -5.11706  -0.00746  -0.49425  -0.00746  -0.49425  -0.00747  -0.49424  -0.00747  -0.49424
 -5.06689  -0.00761  -0.49463  -0.00761  -0.49463  -0.00761  -0.49462  -0.00761  -0.49462
 -5.01672  -0.00774  -0.49502  -0.00774  -0.49502  -0.00774  -0.49501  -0.00774  -0.49501
 -4.96656  -0.00789  -0.49541  -0.00789  -0.49541  -0.00789  -0.49540  -0.00789  -0.49540
 -4.91639  -0.00814  -0.49582  -0.00814  -0.49582  -0.00814  -0.49581  -0.00814  -0.49581
 -4.86622  -0.00854  -0.49625  -0.00854  -0.49625  -0.00854  -0.49624  -0.00854  -0.49624
 -4.81605  -0.00906  -0.49670  -0.00906  -0.49670  -0.00905  -0.49669  -0.00905  -0.49669
 -4.76589  -0.00952  -0.49718  -0.00952  -0.49718  -0.00950  -0.49717  -0.00950  -0.49717
 -4.71572  -0.00972  -0.49767  -0.00972  -0.49767  -0.00969  -0.49765  -0.00969  -0.49765
 -4.66555  -0.00962  -0.49815  -0.00962  -0.49815  -0.00958  -0.49814  -0.00958  -0.49814
 -4.61538  -0.00943  -0.49863  -0.00943  -0.49863  -0.00937  -0.49861  -0.00937  -0.49861
 -4.56522  -0.00944  -0.49910  -0.00944  -0.49910  -0.00935  -0.49907  -0.00935  -0.49907
 -4.51505  -0.00977  -0.49959  -0.00977  -0.49959  -0.00966  -0.49956  -0.00966  -0.49956
 -4.46488  -0.01028  -0.50010  -0.01028  -0.50010  -0.01015  -0.50007  -0.01015  -0.50007
 -4.41472  -0.01066  -0.50064  -0.01066  -0.50064  -0.01051  -0.50060  -0.01051  -0.50060
 -4.36455  -0.01066  -0.50117  -0.01066  -0.50117  -0.01051  -0.50112  -0.01051  -0.50112
 -4.31438  -0.01029  -0.50169  -0.01029  -0.50169  -0.01015  -0.50163  -0.01015  -0.50163
 -4.26421  -0.00980  -0.50218  -0.00980  -0.50218  -0.00968  -0.50212  -0.00968  -0.50212
 -4.21405  -0.00948  -0.50266  -0.00948  -0.50266  -0.00939  -0.50259  -0.00939  -0.50259
 -4.16388  -0.00946  -0.50313  -0.00946  -0.50313  -0.00940  -0.50306  -0.00940  -0.50306
 -4.11371  -0.00968  -0.50362  -0.00968  -0.50362  -0.00964  -0.50354  -0.00964  -0.50354
 -4.06355  -0.00991  -0.50411  -0.00991  -0.50411  -0.00989  -0.50404  -0.00989  -0.50404
 -4.01338  -0.01000  -0.50462  -0.01000  -0.50462  -0.00999  -0.50454  -0.00999  -0.50454
 -3.96321  -0.00988  -0.50511  -0.00988  -0.50511  -0.00987  -0.50504  -0.00987  -0.50504
 -3.91304  -0.00960  -0.50559  -0.00960  -0.50559  -0.00959  -0.50552  -0.00959  -0.50552
 -3.86288  -0.00923  -0.50606  -0.00923  -0.50606  -0.00922  -0.50598  -0.00922  -0.50598
 -3.81271  -0.00886  -0.50650  -0.00886  -0.50650  -0.00885  -0.50642  -0.00885  -0.50642
 -3.76254  -0.00858  -0.50693  -0.00858  -0.50693  -0.00857  -0.50685  -0.00857  -0.50685
 -3.71237  -0.00851  -0.50736  -0.00851  -0.50736  -0.00850  -0.50728  -0.00850  -0.50728
 -3.66221  -0.00874  -0.50780  -0.00874  -0.50780  -0.00873  -0.50772  -0.00873  -0.50772
 -3.61204  -0.00928  -0.50826  -0.00928  -0.50826  -0.00928  -0.50818  -0.00928  -0.50818
 -3.56187  -0.01000  -0.50876  -0.01000  -0.50876  -0.01000  -0.50869  -0.01000  -0.50869
 -3.51171  -0.01065  -0.50930  -0.01065  -0.50930  -0.01064  -0.50922  -0.01064  -0.50922
 -3.46154  -0.01093  -0.50985  -0.01093  -0.50985  -0.01093  -0.50977  -0.01093  -0.50977
 -3.41137  -0.01068  -0.51038  -0.01068  -0.51038  -0.01068  -0.51030  -0.01068  -0.51030
 -3.36120  -0.00987  -0.51088  -0.00987  -0.51088  -0.00988  -0.51080  -0.00988  -0.51080
 -3.31104  -0.00865  -0.51131  -0.00865  -0.51131  -0.00865  -0.51123  -0.00865  -0.51123
 -3.26087  -0.00722  -0.51167  -0.00722  -0.51167  -0.00723  -0.51160  -0.00723  -0.51160
 -3.21070  -0.00580  -0.51196  -0.00580  -0.51196  -0.00581  -0.51189  -0.00581  -0.51189
 -3.16054  -0.00456  -0.51219  -0.00456  -0.51219  -0.00456  -0.51212  -0.00456  -0.51212
 -3.11037  -0.00358  -0.51237  -0.00358  -0.51237  -0.00359  -0.51230  -0.00359  -0.51230
 -3.06020  -0.00294  -0.51252  -0.00294  -0.51252  -0.00295  -0.51244  -0.00295  -0.51244
 -3.01003  -0.00267  -0.51265  -0.00267  -0.51265  -0.00267  -0.51258  -0.00267  -0.51258
 -2.95987  -0.00277  -0.51279  -0.00277  -0.51279  -0.00277  -0.51272  -0.00277  -0.51272
 -2.90970  -0.00320  -0.51295  -0.00320  -0.51295  -0.00320  -0.51288  -0.00320  -0.51288
 -2.85953  -0.00385  -0.51315  -0.00385  -0.51315  -0.00385  -0.51307  -0.00385  -0.51307
 -2.80936  -0.00452  -0.51337  -0.00452  -0.51337  -0.00453  -0.51330  -0.00453  -0.51330
 -2.75920  -0.00503  -0.51363  -0.00503  -0.51363  -0.00503  -0.51355  -0.00503  -0.51355
 -2.70903  -0.00520  -0.51389  -0.00520  -0.51389  -0.00520  -0.51381  -0.00520  -0.51381
 -2.65886  -0.00500  -0.51414  -0.00500  -0.51414  -0.00499  -0.51406  -0.00499  -0.51406
 -2.60870  -0.00448  -0.51436  -0.00448  -0.51436  -0.00447  -0.51429  -0.00447  -0.51429
 -2.55853  -0.00378  -0.51455  -0.00378  -0.51455  -0.00377  -0.51448  -0.00377  -0.51448
 -2.50836  -0.00305  -0.51470  -0.00305  -0.51470  -0.00304  -0.51463  -0.00304  -0.51463
 -2.45819  -0.00238  -0.51482  -0.00238  -0.51482  -0.00237  -0.51475  -0.00237  -0.51475
 -2.40803  -0.00177  -0.51491  -0.00177  -0.51491  -0.00176  -0.51484  -0.00176  -0.51484
 -2.35786  -0.00121  -0.51497  -0.00121  -0.51497  -0.00120  -0.51490  -0.00120  -0.51490
 -2.30769  -0.00068  -0.51501  -0.00068  -0.51501  -0.00067  -0.51493  -0.00067  -0.51493
 -2.25753  -0.00017  -0.51502  -0.00017  -0.51502  -0.00017  -0.51494  -0.00017  -0.51494
 -2.20736   0.00024  -0.51500   0.00024  -0.51500   0.00025  -0.51493   0.00025  -0.51493
 -2.15719   0.00048  -0.51498   0.00048  -0.51498   0.00047  -0.51490   0.00047  -0.51490
 -2.10702   0.00043  -0.51496   0.00043  -0.51496   0.00043  -0.51488   0.00043  -0.51488
 -2.05686   0.00006  -0.51496   0.00006  -0.51496   0.00006  -0.51488   0.00006  -0.51488
 -2.00669  -0.00061  -0.51499  -0.00061  -0.51499  -0.00060  -0.51491  -0.00060  -0.51491
 -1.95652  -0.00146  -0.51506  -0.00146  -0.51506  -0.00146  -0.51498  -0.00146  -0.51498
 -1.90635  -0.00235  -0.51518  -0.00235  -0.51518  -0.00234  -0.51510  -0.00234  -0.51510
 -1.85619  -0.00308  -0.51533  -0.00308  -0.51533  -0.00306  -0.51525  -0.00306  -0.51525
 -1.80602  -0.00352  -0.51551  -0.00352  -0.51551  -0.00350  -0.51543  -0.00350  -0.51543
 -1.75585  -0.00360  -0.51569  -0.00360  -0.51569  -0.00358  -0.51561  -0.00358  -0.51561
 -1.70569  -0.00337  -0.51586  -0.00337  -0.51586  -0.00336  -0.51578  -0.00336  -0.51578
 -1.65552  -0.00298  -0.51601  -0.00298  -0.51601  -0.00298  -0.51593  -0.00298  -0.51593
 -1.60535  -0.00258  -0.51614  -0.00258  -0.51614  -0.00260  -0.51606  -0.00260  -0.51606
 -1.55518  -0.00231  -0.51625  -0.00231  -0.51625  -0.00234  -0.51617  -0.00234  -0.51617
 -1.50502  -0.00222  -0.51636  -0.00222  -0.51636  -0.00226  -0.51629  -0.00226  -0.51629
 -1.45485  -0.00232  -0.51648  -0.00232  -0.51648  -0.00236  -0.51640  -0.00236  -0.51640
 -1.40468  -0.00260  -0.51661  -0.00260  -0.51661  -0.00263  -0.51654  -0.00263  -0.51654
 -1.35452  -0.00301  -0.51676  -0.00301  -0.51676  -0.00304  -0.51669  -0.00304  -0.51669
 -1.30435  -0.00351  -0.51694  -0.00351  -0.51694  -0.00354  -0.51687  -0.00354  -0.51687
 -1.25418  -0.00399  -0.51714  -0.00399  -0.51714  -0.00401  -0.51707  -0.00401  -0.51707
 -1.20401  -0.00428  -0.51735  -0.00428  -0.51735  -0.00431  -0.51728  -0.00431  -0.51728
 -1.15385  -0.00427  -0.51757  -0.00427  -0.51757  -0.00429  -0.51750  -0.00429  -0.51750
 -1.10368  -0.00389  -0.51776  -0.00389  -0.51776  -0.00391  -0.51770  -0.00391  -0.51770
 -1.05351  -0.00325  -0.51793  -0.00325  -0.51793  -0.00326  -0.51786  -0.00326  -0.51786
 -1.00334  -0.00249  -0.51805  -0.00249  -0.51805  -0.00250  -0.51798  -0.00250  -0.51798
 -0.95318  -0.00183  -0.51814  -0.00183  -0.51814  -0.00183  -0.51808  -0.00183  -0.51808
 -0.90301  -0.00138  -0.51821  -0.00138  -0.51821  -0.00139  -0.51815  -0.00139  -0.51815
 -0.85284  -0.00122  -0.51827  -0.00122  -0.51827  -0.00123  -0.51821  -0.00123  -0.51821
 -0.80268  -0.00132  -0.51834  -0.00132  -0.51834  -0.00133  -0.51827  -0.00133  -0.51827
 -0.75251  -0.00161  -0.51842  -0.00161  -0.51842  -0.00161  -0.51836  -0.00161  -0.51836
 -0.70234  -0.00196  -0.51852  -0.00196  -0.51852  -0.00197  -0.51845  -0.00197  -0.51845
 -0.65217  -0.00226  -0.51863  -0.00226  -0.51863  -0.00228  -0.51857  -0.00228  -0.51857
 -0.60201  -0.00240  -0.51875  -0.00240  -0.51875  -0.00242  -0.51869  -0.00242  -0.51869
 -0.55184  -0.00232  -0.51887  -0.00232  -0.51887  -0.00234  -0.51881  -0.00234  -0.51881
 -0.50167  -0.00201  -0.51897  -0.00201  -0.51897  -0.00203  -0.51891  -0.00203  -0.51891
 -0.45151  -0.00157  -0.51905  -0.00157  -0.51905  -0.00159  -0.51899  -0.00159  -0.51899
 -0.40134  -0.00112  -0.51910  -0.00112  -0.51910  -0.00113  -0.51905  -0.00113  -0.51905
 -0.35117  -0.00077  -0.51914  -0.00077  -0.51914  -0.00077  -0.51908  -0.00077  -0.51908
 -0.30100  -0.00061  -0.51917  -0.00061  -0.51917  -0.00061  -0.51912  -0.00061  -0.51912
 -0.25084  -0.00067  -0.51921  -0.00067  -0.51921  -0.00067  -0.51915  -0.00067  -0.51915
 -0.20067  -0.00093  -0.51925  -0.00093  -0.51925  -0.00093  -0.51920  -0.00093  -0.51920
 -0.15050  -0.00134  -0.51932  -0.00134  -0.51932  -0.00134  -0.51926  -0.00134  -0.51926
 -0.10033  -0.00182  -0.51941  -0.00182  -0.51941  -0.00182  -0.51935  -0.00182  -0.51935
 -0.05017  -0.00229  -0.51953  -0.00229  -0.51953  -0.00229  -0.51947  -0.00229  -0.51947
 -0.00000  -0.00266  -0.51966  -0.00266  -0.51966  -0.00266  -0.51960  -0.00266  -0.51960
  0.05017  -0.00291  -0.51981  -0.00291  -0.51981  -0.00291  -0.51975  -0.00291  -0.51975
  0.10033  -0.00310  -0.51996  -0.00310  -0.51996  -0.00311  -0.51991  -0.00311  -0.51991
  0.15050  -0.00338  -0.52013  -0.00338  -0.52013  -0.00338  -0.52007  -0.00338  -0.52007
  0.20067  -0.00387  -0.52033  -0.00387  -0.52033  -0.00387  -0.52027  -0.00387  -0.52027
  0.25084  -0.00461  -0.52056  -0.00461  -0.52056  -0.00461  -0.52050  -0.00461  -0.52050
  0.30100  -0.00548  -0.52083  -0.00548  -0.52083  -0.00547  -0.52077  -0.00547  -0.52077
  0.35117  -0.00621  -0.52114  -0.00621  -0.52114  -0.00621  -0.52109  -0.00621  -0.52109
  0.40134  -0.00653  -0.52147  -0.00653  -0.52147  -0.00653  -0.52141  -0.00653  -0.52141
  0.45151  -0.00626  -0.52179  -0.00626  -0.52179  -0.00627  -0.52173  -0.00627  -0.52173
  0.50167  -0.00542  -0.52206  -0.00542  -0.52206  -0.00543  -0.52200  -0.00543  -0.52200
  0.55184  -0.00420  -0.52227  -0.00420  -0.52227  -0.00422  -0.52221  -0.00422  -0.52221
  0.60201  -0.00286  -0.52241  -0.00286  -0.52241  -0.00290  -0.52236  -0.00290  -0.52236
  0.65217  -0.00168  -0.52250  -0.00168  -0.52250  -0.00172  -0.52244  -0.00172  -0.52244
  0.70234  -0.00079  -0.52254  -0.00079  -0.52254  -0.00083  -0.52249  -0.00083  -0.52249
  0.75251  -0.00024  -0.52255  -0.00024  -0.52255  -0.00027  -0.52250  -0.00027  -0.52250
  0.80268   0.00003  -0.52255   0.00003  -0.52255  -0.00000  -0.52250  -0.00000  -0.52250
  0.85284   0.00008  -0.52254   0.00008  -0.52254   0.00006  -0.52250   0.00006  -0.52250
  0.90301   0.00001  -0.52254   0.00001  -0.52254  -0.00000  -0.52250  -0.00000  -0.52250
  0.95318  -0.00016  -0.52255  -0.00016  -0.52255  -0.00016  -0.52250  -0.00016  -0.52250
  1.00334  -0.00043  -0.52257  -0.00043  -0.52257  -0.00043  -0.52253  -0.00043  -0.52253
  1.05351  -0.00083  -0.52261  -0.00083  -0.52261  -0.00083  -0.52257  -0.00083  -0.52257
  1.10368  -0.00137  -0.52268  -0.00137  -0.52268  -0.00138  -0.52264  -0.00138  -0.52264
  1.15385  -0.00203  -0.52278  -0.00203  -0.52278  -0.00203  -0.52274  -0.00203  -0.52274
  1.20401  -0.00267  -0.52292  -0.00267  -0.52292  -0.00267  -0.52287  -0.00267  -0.52287
  1.25418  -0.00312  -0.52307  -0.00312  -0.52307  -0.00312  -0.52303  -0.00312  -0.52303
  1.30435  -0.00323  -0.52323  -0.00323  -0.52323  -0.00324  -0.52319  -0.00324  -0.52319
  1.35452  -0.00295  -0.52338  -0.00295  -0.52338  -0.00295  -0.52334  -0.00295  -0.52334
  1.40468  -0.00233  -0.52350  -0.00233  -0.52350  -0.00233  -0.52346  -0.00233  -0.52346
  1.45485  -0.00157  -0.52358  -0.00157  -0.52358  -0.00157  -0.52354  -0.00157  -0.52354
  1.50502  -0.00087  -0.52362  -0.00087  -0.52362  -0.00087  -0.52358  -0.00087  -0.52358
  1.55518  -0.00041  -0.52364  -0.00041  -0.52364  -0.00041  -0.52360  -0.00041  -0.52360
  1.60535  -0.00029  -0.52366  -0.00029  -0.52366  -0.00030  -0.52361  -0.00030  -0.52361
  1.65552  -0.00054  -0.52368  -0.00054  -0.52368  -0.00055  -0.52364  -0.00055  -0.52364
  1.70569  -0.00108  -0.52374  -0.00108  -0.52374  -0.00110  -0.52370  -0.00110  -0.52370
  1.75585  -0.00179  -0.52383  -0.00179  -0.52383  -0.00181  -0.52379  -0.00181  -0.52379
  1.80602  -0.00248  -0.52395  -0.00248  -0.52395  -0.00250  -0.52391  -0.00250  -0.52391
  1.85619  -0.00297  -0.52410  -0.00297  -0.52410  -0.00300  -0.52406  -0.00300  -0.52406
  1.90635  -0.00315  -0.52426  -0.00315  -0.52426  -0.00318  -0.52422  -0.00318  -0.52422
  1.95652  -0.00293  -0.52441  -0.00293  -0.52441  -0.00295  -0.52437  -0.00295  -0.52437
  2.00669  -0.00226  -0.52452  -0.00226  -0.52452  -0.00227  -0.52449  -0.00227  -0.52449
  2.05686  -0.00112  -0.52458  -0.00112  -0.52458  -0.00113  -0.52454  -0.00113  -0.52454
  2.10702   0.00040  -0.52456   0.00040  -0.52456   0.00038  -0.52452   0.00038  -0.52452
  2.15719   0.00205  -0.52445   0.00205  -0.52445   0.00203  -0.52442   0.00203  -0.52442
  2.20736   0.00344  -0.52428   0.00344  -0.52428   0.00342  -0.52425   0.00342  -0.52425
  2.25753   0.00417  -0.52407   0.00417  -0.52407   0.00414  -0.52404   0.00414  -0.52404
  2.30769   0.00403  -0.52387   0.00403  -0.52387   0.00400  -0.52384   0.00400  -0.52384
  2.35786   0.00309  -0.52371   0.00309  -0.52371   0.00307  -0.52369   0.00307  -0.52369
  2.40803   0.00167  -0.52363   0.00167  -0.52363   0.00166  -0.52360   0.00166  -0.52360
  2.45819   0.00015  -0.52362   0.00015  -0.52362   0.00014  -0.52360   0.00014  -0.52360
  2.50836  -0.00118  -0.52368  -0.00118  -0.52368  -0.00118  -0.52366  -0.00118  -0.52366
  2.55853  -0.00216  -0.52379  -0.00216  -0.52379  -0.00216  -0.52376  -0.00216  -0.52376
  2.60870  -0.00274  -0.52393  -0.00274  -0.52393  -0.00275  -0.52390  -0.00275  -0.52390
  2.65886  -0.00294  -0.52408  -0.00294  -0.52408  -0.00295  -0.52405  -0.00295  -0.52405
  2.70903  -0.00286  -0.52422  -0.00286  -0.52422  -0.00287  -0.52419  -0.00287  -0.52419
  2.75920  -0.00264  -0.52435  -0.00264  -0.52435  -0.00265  -0.52433  -0.00265  -0.52433
  2.80936  -0.00245  -0.52448  -0.00245  -0.52448  -0.00246  -0.52445  -0.00246  -0.52445
  2.85953  -0.00238  -0.52459  -0.00238  -0.52459  -0.00239  -0.52457  -0.00239  -0.52457
  2.90970  -0.00247  -0.52472  -0.00247  -0.52472  -0.00247  -0.52469  -0.00247  -0.52469
  2.95987  -0.00264  -0.52485  -0.00264  -0.52485  -0.00263  -0.52483  -0.00263  -0.52483
  3.01003  -0.00279  -0.52499  -0.00279  -0.52499  -0.00278  -0.52497  -0.00278  -0.52497
  3.06020  -0.00284  -0.52513  -0.00284  -0.52513  -0.00283  -0.52511  -0.00283  -0.52511
  3.11037  -0.00273  -0.52527  -0.00273  -0.52527  -0.00272  -0.52524  -0.00272  -0.52524
  3.16054  -0.00241  -0.52539  -0.00241  -0.52539  -0.00240  -0.52537  -0.00240  -0.52537
  3.21070  -0.00185  -0.52548  -0.00185  -0.52548  -0.00184  -0.52546  -0.00184  -0.52546
  3.26087  -0.00102  -0.52554  -0.00102  -0.52554  -0.00103  -0.52551  -0.00103  -0.52551
  3.31104   0.00002  -0.52553   0.00002  -0.52553  -0.00000  -0.52551  -0.00000  -0.52551
  3.36120   0.00111  -0.52548   0.00111  -0.52548   0.00107  -0.52546   0.00107  -0.52546
  3.41137   0.00200  -0.52538   0.00200  -0.52538   0.00195  -0.52536   0.00195  -0.52536
  3.46154   0.00238  -0.52526   0.00238  -0.52526   0.00231  -0.52524   0.00231  -0.52524
  3.51171   0.00203  -0.52516   0.00203  -0.52516   0.00195  -0.52514   0.00195  -0.52514
  3.56187   0.00089  -0.52511   0.00089  -0.52511   0.00081  -0.52510   0.00081  -0.52510
  3.61204  -0.00086  -0.52516  -0.00086  -0.52516  -0.00093  -0.52515  -0.00093  -0.52515
  3.66221  -0.00289  -0.52530  -0.00289  -0.52530  -0.00295  -0.52530  -0.00295  -0.52530
  3.71237  -0.00484  -0.52554  -0.00484  -0.52554  -0.00487  -0.52554  -0.00487  -0.52554
  3.76254  -0.00642  -0.52587  -0.00642  -0.52587  -0.00644  -0.52587  -0.00644  -0.52587
  3.81271  -0.00749  -0.52624  -0.00749  -0.52624  -0.00750  -0.52624  -0.00750  -0.52624
  3.86288  -0.00804  -0.52664  -0.00804  -0.52664  -0.00805  -0.52665  -0.00805  -0.52665
  3.91304  -0.00811  -0.52705  -0.00811  -0.52705  -0.00813  -0.52705  -0.00813  -0.52705
  3.96321  -0.00775  -0.52744  -0.00775  -0.52744  -0.00777  -0.52744  -0.00777  -0.52744
  4.01338  -0.00693  -0.52779  -0.00693  -0.52779  -0.00697  -0.52779  -0.00697  -0.52779
  4.06355  -0.00564  -0.52807  -0.00564  -0.52807  -0.00569  -0.52808  -0.00569  -0.52808
  4.11371  -0.00390  -0.52827  -0.00390  -0.52827  -0.00396  -0.52828  -0.00396  -0.52828
  4.16388  -0.00187  -0.52836  -0.00187  -0.52836  -0.00193  -0.52837  -0.00193  -0.52837
  4.21405   0.00013  -0.52835   0.00013  -0.52835   0.00006  -0.52837   0.00006  -0.52837
  4.26421   0.00168  -0.52827   0.00168  -0.52827   0.00161  -0.52829   0.00161  -0.52829
  4.31438   0.00243  -0.52815   0.00243  -0.52815   0.00237  -0.52817   0.00237  -0.52817
  4.36455   0.00234  -0.52803   0.00234  -0.52803   0.00229  -0.52806   0.00229  -0.52806
  4.41472   0.00180  -0.52794   0.00180  -0.52794   0.00177  -0.52797   0.00177  -0.52797
  4.46488   0.00157  -0.52786   0.00157  -0.52786   0.00157  -0.52789   0.00157  -0.52789
  4.51505   0.00250  -0.52773   0.00250  -0.52773   0.00251  -0.52776   0.00251  -0.52776
  4.56522   0.00501  -0.52748   0.00501  -0.52748   0.00504  -0.52751   0.00504  -0.52751
  4.61538   0.00893  -0.52704   0.00893  -0.52704   0.00897  -0.52706   0.00897  -0.52706
  4.66555   0.01347  -0.52636   0.01347  -0.52636   0.01352  -0.52638   0.01352  -0.52638
  4.71572   0.01764  -0.52548   0.01764  -0.52548   0.01768  -0.52550   0.01768  -0.52550
  4.76589   0.02054  -0.52444   0.02054  -0.52444   0.02056  -0.52446   0.02056  -0.52446
  4.81605   0.02166  -0.52336   0.02166  -0.52336   0.02167  -0.52338   0.02167  -0.52338
  4.86622   0.02094  -0.52231   0.02094  -0.52231   0.02092  -0.52233   0.02092  -0.52233
  4.91639   0.01867  -0.52137   0.01867  -0.52137   0.01863  -0.52139   0.01863  -0.52139
  4.96656   0.01546  -0.52060   0.01546  -0.52060   0.01542  -0.52062   0.01542  -0.52062
  5.01672   0.01210  -0.51999   0.01210  -0.51999   0.01206  -0.52001   0.01206  -0.52001