  45   45    1    2
  1.6178750e+03   8.6444420e-10   8.6444477e-10   2.5000000e-09   5.0000000e-16
            1.000000e-04
  CAR
 DOS and projected DOS file by LOBSTER. Energy is shifted such that the Fermi level lies at 0 eV. 
      2.57553109     -12.47463614   301      -2.44119132       1.00000000
-10.03344   0.00000   0.00000  94.83984  94.55067
 -9.98328   0.00000   0.00000  94.83984  94.55067
 -9.93311   0.00000   0.00000  94.83984  94.55067
 -9.88294   0.00000   0.00000  94.83984  94.55067
 -9.83278   0.00000   0.00000  94.83984  94.55067
 -9.78261   0.00000   0.00000  94.83984  94.55067
 -9.73244   0.00000   0.00000  94.83984  94.55067
 -9.68227   0.00000   0.00000  94.83984  94.55067
 -9.63211   0.00000   0.00000  94.83984  94.55067
 -9.58194   0.00000   0.00000  94.83984  94.55067
 -9.53177   0.00000   0.00000  94.83984  94.55067
 -9.48161   0.00000   0.00000  94.83984  94.55067
 -9.43144   0.00000   0.00000  94.83984  94.55067
 -9.38127   0.00000   0.00000  94.83984  94.55067
 -9.33110   0.00000   0.00000  94.83984  94.55067
 -9.28094   0.00000   0.00000  94.83984  94.55067
 -9.23077   0.00000   0.00000  94.83984  94.55067
 -9.18060   0.00000   0.00000  94.83984  94.55067
 -9.13043   0.00000   0.00000  94.83984  94.55067
 -9.08027   0.00000   0.00000  94.83984  94.55067
 -9.03010   0.00000   0.00000  94.83984  94.55067
 -8.97993   0.00000   0.00000  94.83984  94.55067
 -8.92977   0.00000   0.00000  94.83984  94.55067
 -8.87960   0.00000   0.00000  94.83984  94.55067
 -8.82943   0.00000   0.00000  94.83984  94.55067
 -8.77926   0.00000   0.00000  94.83984  94.55067
 -8.72910   0.00000   0.00000  94.83984  94.55067
 -8.67893   0.00000   0.00000  94.83984  94.55067
 -8.62876   0.00000   0.00000  94.83984  94.55067
 -8.57860   0.00000   0.00000  94.83984  94.55067
 -8.52843   0.00000   0.00000  94.83984  94.55067
 -8.47826   0.00000   0.00000  94.83984  94.55067
 -8.42809   0.00000  -0.00000  94.83984  94.55067
 -8.37793   0.00000   0.00000  94.83984  94.55067
 -8.32776   0.00000   0.00000  94.83984  94.55067
 -8.27759   0.00000   0.00000  94.83984  94.55067
 -8.22742   0.00000   0.00000  94.83984  94.55067
 -8.17726   0.00000   0.00000  94.83984  94.55067
 -8.12709   0.00000   0.00000  94.83984  94.55067
 -8.07692   0.00000   0.00000  94.83984  94.55067
 -8.02676   0.00000   0.00000  94.83984  94.55067
 -7.97659   0.00000   0.00000  94.83984  94.55067
 -7.92642   0.00000   0.00000  94.83984  94.55067
 -7.87625   0.00003   0.00002  94.83984  94.55067
 -7.82609   0.00012   0.00012  94.83985  94.55068
 -7.77592   0.00049   0.00049  94.83987  94.55070
 -7.72575   0.00184   0.00184  94.83997  94.55080
 -7.67559   0.00618   0.00616  94.84028  94.55111
 -7.62542   0.01852   0.01848  94.84120  94.55203
 -7.57525   0.04981   0.04969  94.84370  94.55453
 -7.52508   0.12028   0.12004  94.84974  94.56055
 -7.47492   0.26143   0.26095  94.86285  94.57364
 -7.42475   0.51283   0.51198  94.88858  94.59932
 -7.37458   0.91175   0.91036  94.93432  94.64499
 -7.32441   1.47781   1.47571  95.00846  94.71903
 -7.27425   2.20122   2.19821  95.11889  94.82930
 -7.22408   3.04356   3.03941  95.27157  94.98178
 -7.17391   3.95275   3.94725  95.46987  95.17981
 -7.12375   4.88392   4.87698  95.71488  95.42447
 -7.07358   5.81579   5.80755  96.00665  95.71582
 -7.02341   6.75756   6.74848  96.34565  96.05437
 -6.97324   7.74487   7.73564  96.73419  96.44245
 -6.92308   8.82333   8.81460  97.17683  96.88465
 -6.87291  10.02152  10.01373  97.67959  97.38701
 -6.82274  11.32514  11.31838  98.24774  97.95482
 -6.77258  12.66610  12.66025  98.88316  98.58995
 -6.72241  13.93077  13.92566  99.58203  99.28856
 -6.67224  14.98077  14.97630 100.33357 100.03988
 -6.62207  15.67962  15.67579 101.12018 100.82629
 -6.57191  15.92407  15.92088 101.91904 101.62500
 -6.52174  15.67808  15.67548 102.70557 102.41140
 -6.47157  15.00318  15.00105 103.45824 103.16396
 -6.42140  14.07486  14.07308 104.16433 103.86997
 -6.37124  13.17106  13.16955 104.82509 104.53064
 -6.32107  12.61612  12.61482 105.45800 105.16350
 -6.27090  12.67491  12.67380 106.09387 105.79930
 -6.22074  13.42786  13.42691 106.76751 106.47290
 -6.17057  14.69684  14.69601 107.50481 107.21015
 -6.12040  16.08980  16.08903 108.31199 108.01730
 -6.07023  17.16498  17.16423 109.17311 108.87838
 -6.02007  17.62662  17.62586 110.05739 109.76262
 -5.96990  17.43333  17.43252 110.93197 110.63716
 -5.91973  16.76232  16.76146 111.77289 111.47804
 -5.86957  15.87627  15.87536 112.56935 112.27446
 -5.81940  14.99613  14.99519 113.32167 113.02673
 -5.76923  14.25501  14.25406 114.03680 113.74181
 -5.71906  13.72958  13.72865 114.72558 114.43054
 -5.66890  13.48799  13.48710 115.40223 115.10715
 -5.61873  13.59682  13.59599 116.08435 115.78922
 -5.56856  14.08123  14.08048 116.79076 116.49560
 -5.51839  14.88043  14.87977 117.53727 117.24208
 -5.46823  15.84400  15.84343 118.33212 118.03690
 -5.41806  16.77886  16.77838 119.17387 118.87862
 -5.36789  17.51973  17.51929 120.05279 119.75752
 -5.31773  17.98613  17.98567 120.95510 120.65981
 -5.26756  18.20257  18.20204 121.86827 121.57296
 -5.21739  18.27770  18.27699 122.78522 122.48986
 -5.16722  18.35414  18.35318 123.70599 123.41059
 -5.11706  18.55244  18.55114 124.63672 124.34125
 -5.06689  18.93438  18.93267 125.58660 125.29105
 -5.01672  19.49967  19.49757 126.56485 126.26919
 -4.96656  20.20820  20.20578 127.57864 127.28286
 -4.91639  21.00275  21.00016 128.63228 128.33638
 -4.86622  21.81067  21.80804 129.72647 129.43042
 -4.81605  22.52903  22.52645 130.85668 130.56051
 -4.76589  23.02693  23.02435 132.01188 131.71558
 -4.71572  23.19500  23.19228 133.17551 132.87907
 -4.66555  23.02605  23.02292 134.33066 134.03407
 -4.61538  22.66005  22.65621 135.46746 135.17067
 -4.56522  22.33242  22.32754 136.58781 136.29078
 -4.51505  22.23904  22.23290 137.70348 137.40614
 -4.46488  22.41402  22.40657 138.82793 138.53022
 -4.41472  22.72119  22.71263 139.96779 139.66965
 -4.36455  22.97064  22.96144 141.12016 140.82156
 -4.31438  23.06155  23.05235 142.27710 141.97803
 -4.26421  23.02888  23.02036 143.43239 143.13290
 -4.21405  22.95964  22.95235 144.58421 144.28436
 -4.16388  22.86558  22.85980 145.73132 145.43117
 -4.11371  22.63786  22.63359 146.86699 146.56663
 -4.06355  22.12859  22.12564 147.97712 147.67661
 -4.01338  21.28085  21.27891 149.04473 148.74412
 -3.96321  20.18480  20.18356 150.05734 149.75667
 -3.91304  19.01714  19.01635 151.01138 150.71067
 -3.86288  17.93766  17.93715 151.91126 151.61053
 -3.81271  17.04370  17.04336 152.76630 152.46554
 -3.76254  16.39861  16.39835 153.58897 153.28820
 -3.71237  16.06049  16.06027 154.39468 154.09390
 -3.66221  16.04940  16.04920 155.19983 154.89905
 -3.61204  16.28291  16.28273 156.01670 155.71591
 -3.56187  16.56573  16.56556 156.84776 156.54695
 -3.51171  16.67146  16.67129 157.68412 157.38331
 -3.46154  16.45978  16.45963 158.50986 158.20904
 -3.41137  15.93610  15.93597 159.30933 159.00850
 -3.36120  15.21414  15.21402 160.07258 159.77175
 -3.31104  14.42298  14.42286 160.79614 160.49530
 -3.26087  13.63207  13.63194 161.48003 161.17918
 -3.21070  12.83817  12.83802 162.12408 161.82323
 -3.16054  12.00958  12.00941 162.72657 162.42571
 -3.11037  11.15275  11.15256 163.28607 162.98520
 -3.06020  10.36100  10.36082 163.80585 163.50497
 -3.01003   9.81193   9.81176 164.29809 163.99720
 -2.95987   9.69946   9.69929 164.78469 164.48379
 -2.90970  10.12463  10.12446 165.29261 164.99170
 -2.85953  11.00934  11.00916 165.84492 165.54400
 -2.80936  12.09852  12.09832 166.45187 166.15094
 -2.75920  13.06019  13.05996 167.10706 166.80613
 -2.70903  13.62082  13.62058 167.79038 167.48943
 -2.65886  13.65291  13.65267 168.47531 168.17435
 -2.60870  13.17968  13.17945 169.13650 168.83553
 -2.55853  12.32662  12.32641 169.75489 169.45391
 -2.50836  11.27007  11.26988 170.32028 170.01929
 -2.45819  10.20583  10.20567 170.83228 170.53128
 -2.40803   9.32737   9.32723 171.30020 170.99920
 -2.35786   8.79810   8.79798 171.74158 171.44057
 -2.30769   8.71763   8.71753 172.17892 171.87790
 -2.25753   9.09427   9.09417 172.63515 172.33413
 -2.20736   9.83554   9.83543 173.12858 172.82755
 -2.15719  10.76452  10.76438 173.66860 173.36757
 -2.10702  11.66296  11.66278 174.25370 173.95266
 -2.05686  12.32967  12.32943 174.87224 174.57119
 -2.00669  12.63131  12.63100 175.50592 175.20485
 -1.95652  12.52760  12.52721 176.13440 175.83331
 -1.90635  12.07218  12.07170 176.74003 176.43891
 -1.85619  11.40156  11.40099 177.31201 177.01087
 -1.80602  10.71453  10.71390 177.84953 177.54835
 -1.75585  10.23071  10.23005 178.36277 178.06157
 -1.70569  10.12294  10.12227 178.87061 178.56937
 -1.65552  10.44477  10.44410 179.39460 179.09332
 -1.60535  11.09640  11.09573 179.95127 179.64997
 -1.55518  11.86390  11.86325 180.54645 180.24511
 -1.50502  12.52282  12.52221 181.17469 180.87332
 -1.45485  12.94553  12.94496 181.82413 181.52273
 -1.40468  13.13815  13.13764 182.48324 182.18181
 -1.35452  13.17901  13.17855 183.14439 182.84294
 -1.30435  13.10736  13.10694 183.80195 183.50048
 -1.25418  12.85495  12.85457 184.44685 184.14536
 -1.20401  12.28393  12.28359 185.06310 184.76159
 -1.15385  11.31104  11.31073 185.63054 185.32902
 -1.10368  10.02532  10.02507 186.13348 185.83195
 -1.05351   8.70363   8.70344 186.57012 186.26857
 -1.00334   7.70106   7.70093 186.95646 186.65491
 -0.95318   7.28543   7.28534 187.32195 187.02039
 -0.90301   7.52331   7.52326 187.69937 187.39781
 -0.85284   8.28148   8.28144 188.11483 187.81327
 -0.80268   9.32144   9.32140 188.58246 188.28090
 -0.75251  10.40617  10.40610 189.10451 188.80295
 -0.70234  11.35107  11.35096 189.67396 189.37239
 -0.65217  12.01588  12.01570 190.27677 189.97519
 -0.60201  12.28613  12.28589 190.89313 190.59153
 -0.55184  12.08780  12.08749 191.49954 191.19793
 -0.50167  11.43016  11.42982 192.07296 191.77133
 -0.45151  10.43375  10.43340 192.59639 192.29475
 -0.40134   9.30650   9.30618 193.06327 192.76161
 -0.35117   8.27165   8.27140 193.47824 193.17657
 -0.30100   7.48801   7.48782 193.85389 193.55221
 -0.25084   7.00760   7.00747 194.20544 193.90375
 -0.20067   6.78608   6.78599 194.54588 194.24419
 -0.15050   6.72357   6.72351 194.88318 194.58149
 -0.10033   6.70240   6.70234 195.21942 194.91773
 -0.05017   6.61115   6.61110 195.55109 195.24939
 -0.00000   6.37102   6.37097 195.87070 195.56900
  0.05017   5.97222   5.97218 196.17031 195.86861
  0.10033   5.49720   5.49716 196.44609 196.14439
  0.15050   5.09600   5.09596 196.70174 196.40004
  0.20067   4.91109   4.91105 196.94812 196.64641
  0.25084   4.99326   4.99321 197.19862 196.89691
  0.30100   5.26474   5.26468 197.46273 197.16102
  0.35117   5.55787   5.55778 197.74156 197.43984
  0.40134   5.70755   5.70745 198.02789 197.72617
  0.45151   5.63692   5.63682 198.31068 198.00895
  0.50167   5.37691   5.37680 198.58042 198.27869
  0.55184   5.00975   5.00965 198.83175 198.53001
  0.60201   4.58904   4.58894 199.06197 198.76022
  0.65217   4.10672   4.10664 199.26799 198.96624
  0.70234   3.53204   3.53197 199.44518 199.14343
  0.75251   2.88053   2.88047 199.58969 199.28794
  0.80268   2.24942   2.24937 199.70254 199.40078
  0.85284   1.79203   1.79200 199.79244 199.49068
  0.90301   1.65345   1.65343 199.87539 199.57363
  0.95318   1.90767   1.90766 199.97109 199.66933
  1.00334   2.52236   2.52236 200.09763 199.79587
  1.05351   3.35993   3.35993 200.26619 199.96443
  1.10368   4.21545   4.21545 200.47767 200.17591
  1.15385   4.88131   4.88130 200.72255 200.42079
  1.20401   5.21427   5.21425 200.98413 200.68237
  1.25418   5.17657   5.17652 201.24383 200.94206
  1.30435   4.83783   4.83771 201.48653 201.18476
  1.35452   4.34415   4.34393 201.70446 201.40268
  1.40468   3.86764   3.86728 201.89849 201.59669
  1.45485   3.54943   3.54890 202.07656 201.77473
  1.50502   3.45499   3.45429 202.24988 201.94802
  1.55518   3.56558   3.56471 202.42876 202.12685
  1.60535   3.81577   3.81476 202.62019 202.31823
  1.65552   4.15462   4.15349 202.82861 202.52660
  1.70569   4.58795   4.58669 203.05878 202.75670
  1.75585   5.17473   5.17336 203.31838 203.01623
  1.80602   5.98854   5.98711 203.61881 203.31659
  1.85619   7.07672   7.07531 203.97383 203.67154
  1.90635   8.43896   8.43768 204.39718 204.09483
  1.95652  10.02442  10.02335 204.90008 204.59768
  2.00669  11.73958  11.73873 205.48902 205.18658
  2.05686  13.46568  13.46501 206.16456 205.86208
  2.10702  15.08395  15.08336 206.92128 206.61877
  2.15719  16.49669  16.49609 207.74887 207.44633
  2.20736  17.63308  17.63240 208.63348 208.33090
  2.25753  18.44637  18.44560 209.55888 209.25626
  2.30769  18.92100  18.92016 210.50809 210.20544
  2.35786  19.09152  19.09067 211.46586 211.16316
  2.40803  19.04849  19.04766 212.42147 212.11873
  2.45819  18.90704  18.90628 213.36999 213.06721
  2.50836  18.75085  18.75019 214.31066 214.00785
  2.55853  18.59791  18.59735 215.24367 214.94083
  2.60870  18.42097  18.42051 216.16780 215.86493
  2.65886  18.20259  18.20222 217.08097 216.77809
  2.70903  17.96974  17.96945 217.98246 217.67957
  2.75920  17.77457  17.77435 218.87416 218.57126
  2.80936  17.64356  17.64337 219.75929 219.45638
  2.85953  17.54744  17.54726 220.63960 220.33667
  2.90970  17.42260  17.42241 221.51364 221.21071
  2.95987  17.22512  17.22490 222.37778 222.07483
  3.01003  16.96901  16.96872 223.22907 222.92611
  3.06020  16.71453  16.71414 224.06759 223.76461
  3.11037  16.51744  16.51689 224.89622 224.59321
  3.16054  16.38603  16.38526 225.71826 225.41522
  3.21070  16.28548  16.28447 226.53526 226.23216
  3.26087  16.18364  16.18246 227.34715 227.04399
  3.31104  16.09276  16.09156 228.15448 227.85126
  3.36120  16.06790  16.06690 228.96056 228.65729
  3.41137  16.16774  16.16713 229.77165 229.46835
  3.46154  16.41746  16.41733 230.59527 230.29197
  3.51171  16.80463  16.80491 231.43831 231.13502
  3.56187  17.30006  17.30055 232.30621 232.00294
  3.61204  17.87031  17.87081 233.20271 232.89947
  3.66221  18.46211  18.46249 234.12890 233.82568
  3.71237  18.97821  18.97842 235.08099 234.77778
  3.76254  19.28709  19.28715 236.04857 235.74536
  3.81271  19.28343  19.28339 237.01596 236.71276
  3.86288  18.95870  18.95859 237.96707 237.66386
  3.91304  18.41313  18.41299 238.89080 238.58758
  3.96321  17.78460  17.78444 239.78301 239.47978
  4.01338  17.15121  17.15102 240.64344 240.34020
  4.06355  16.49573  16.49552 241.47098 241.16773
  4.11371  15.76017  15.75994 242.26163 241.95837
  4.16388  14.92871  14.92847 243.01056 242.70729
  4.21405  14.05633  14.05609 243.71572 243.41244
  4.26421  13.22442  13.22420 244.37916 244.07586
  4.31438  12.47675  12.47655 245.00508 244.70178
  4.36455  11.79613  11.79592 245.59686 245.29354
  4.41472  11.13572  11.13541 246.15551 245.85218
  4.46488  10.47559  10.47507 246.68104 246.37768
  4.51505   9.86385   9.86298 247.17588 246.87248
  4.56522   9.41190   9.41058 247.64805 247.34458
  4.61538   9.23840   9.23661 248.11152 247.80796
  4.66555   9.39026   9.38805 248.58260 248.27893
  4.71572   9.79151   9.78903 249.07381 248.77002
  4.76589  10.25827  10.25574 249.58844 249.28452
  4.81605  10.57619  10.57381 250.11902 249.81498
  4.86622  10.59698  10.59493 250.65064 250.34650
  4.91639  10.29979  10.29815 251.16735 250.86313
  4.96656   9.78333   9.78211 251.65815 251.35387
  5.01672   9.19711   9.19623 252.11955 251.81522
      5.01672241     -10.03344482   301      -2.44119132       1.00000000; Z=  6; 2s 2p_y 2p_z 2p_x 
-10.03344   0.00000   0.00000   0.00000   0.00000   0.00000   0.00000   0.00000   0.00000
 -9.98328   0.00000   0.00000  -0.00000  -0.00000   0.00000   0.00000   0.00000   0.00000
 -9.93311   0.00000   0.00000  -0.00000  -0.00000   0.00000   0.00000   0.00000   0.00000
 -9.88294   0.00000   0.00000  -0.00000  -0.00000   0.00000   0.00000   0.00000   0.00000
 -9.83278   0.00000   0.00000  -0.00000  -0.00000   0.00000   0.00000   0.00000   0.00000
 -9.78261   0.00000   0.00000  -0.00000  -0.00000   0.00000   0.00000   0.00000   0.00000
 -9.73244   0.00000   0.00000  -0.00000   0.00000  -0.00000   0.00000   0.00000   0.00000
 -9.68227   0.00000  -0.00000  -0.00000  -0.00000  -0.00000   0.00000   0.00000   0.00000
 -9.63211  -0.00000  -0.00000   0.00000   0.00000  -0.00000   0.00000  -0.00000  -0.00000
 -9.58194   0.00000   0.00000   0.00000   0.00000   0.00000   0.00000   0.00000   0.00000
 -9.53177   0.00000   0.00000   0.00000   0.00000   0.00000   0.00000   0.00000   0.00000
 -9.48161   0.00000   0.00000   0.00000   0.00000   0.00000   0.00000   0.00000   0.00000
 -9.43144   0.00000   0.00000   0.00000   0.00000   0.00000   0.00000   0.00000   0.00000
 -9.38127   0.00000   0.00000   0.00000   0.00000   0.00000   0.00000   0.00000   0.00000
 -9.33110   0.00000   0.00000   0.00000   0.00000   0.00000   0.00000   0.00000   0.00000
 -9.28094   0.00000   0.00000   0.00000   0.00000   0.00000   0.00000   0.00000   0.00000
 -9.23077   0.00000   0.00000   0.00000   0.00000   0.00000   0.00000   0.00000   0.00000
 -9.18060   0.00000   0.00000   0.00000   0.00000   0.00000   0.00000   0.00000   0.00000
 -9.13043   0.00000   0.00000   0.00000   0.00000   0.00000   0.00000   0.00000   0.00000
 -9.08027   0.00000   0.00000   0.00000   0.00000   0.00000   0.00000   0.00000   0.00000
 -9.03010   0.00000   0.00000   0.00000   0.00000   0.00000   0.00000   0.00000   0.00000
 -8.97993   0.00000   0.00000   0.00000   0.00000   0.00000   0.00000   0.00000   0.00000
 -8.92977   0.00000   0.00000   0.00000   0.00000   0.00000   0.00000   0.00000   0.00000
 -8.87960   0.00000   0.00000   0.00000   0.00000   0.00000   0.00000   0.00000   0.00000
 -8.82943   0.00000   0.00000   0.00000   0.00000   0.00000   0.00000   0.00000   0.00000
 -8.77926   0.00000   0.00000   0.00000   0.00000   0.00000   0.00000   0.00000   0.00000
 -8.72910   0.00000   0.00000   0.00000   0.00000   0.00000   0.00000   0.00000   0.00000
 -8.67893   0.00000   0.00000   0.00000   0.00000   0.00000   0.00000   0.00000   0.00000
 -8.62876   0.00000   0.00000   0.00000   0.00000   0.00000   0.00000   0.00000   0.00000
 -8.57860   0.00000   0.00000   0.00000   0.00000   0.00000   0.00000   0.00000   0.00000
 -8.52843   0.00000   0.00000   0.00000   0.00000   0.00000   0.00000   0.00000   0.00000
 -8.47826   0.00000   0.00000   0.00000   0.00000   0.00000   0.00000   0.00000   0.00000
 -8.42809   0.00000   0.00000   0.00000   0.00000   0.00000  -0.00000   0.00000  -0.00000
 -8.37793   0.00000  -0.00000  -0.00000  -0.00000   0.00000   0.00000  -0.00000   0.00000
 -8.32776   0.00000   0.00000   0.00000   0.00000   0.00000   0.00000   0.00000  -0.00000
 -8.27759   0.00000   0.00000   0.00000  -0.00000   0.00000   0.00000   0.00000   0.00000
 -8.22742   0.00000   0.00000   0.00000   0.00000   0.00000   0.00000   0.00000   0.00000
 -8.17726   0.00000   0.00000   0.00000   0.00000   0.00000   0.00000   0.00000   0.00000
 -8.12709   0.00000   0.00000   0.00000   0.00000   0.00000   0.00000   0.00000   0.00000
 -8.07692   0.00000   0.00000   0.00000   0.00000   0.00000   0.00000   0.00000   0.00000
 -8.02676   0.00000   0.00000   0.00000   0.00000   0.00000   0.00000   0.00000   0.00000
 -7.97659   0.00000   0.00000   0.00000   0.00000   0.00000   0.00000   0.00000   0.00000
 -7.92642   0.00000   0.00000   0.00000   0.00000   0.00000   0.00000   0.00000   0.00000
 -7.87625   0.00000   0.00000   0.00000   0.00000   0.00000   0.00000   0.00000   0.00000
 -7.82609   0.00000   0.00000   0.00000   0.00000   0.00000   0.00000   0.00000   0.00000
 -7.77592   0.00000   0.00000   0.00000   0.00000   0.00001   0.00001   0.00000   0.00000
 -7.72575   0.00000   0.00000   0.00000   0.00000   0.00004   0.00004   0.00001   0.00001
 -7.67559   0.00000   0.00000   0.00000   0.00000   0.00014   0.00014   0.00003   0.00003
 -7.62542   0.00001   0.00001   0.00001   0.00001   0.00039   0.00040   0.00010   0.00010
 -7.57525   0.00002   0.00002   0.00004   0.00004   0.00100   0.00100   0.00029   0.00029
 -7.52508   0.00004   0.00004   0.00011   0.00011   0.00228   0.00229   0.00078   0.00078
 -7.47492   0.00008   0.00008   0.00025   0.00025   0.00467   0.00469   0.00182   0.00182
 -7.42475   0.00014   0.00014   0.00055   0.00055   0.00868   0.00871   0.00378   0.00377
 -7.37458   0.00023   0.00022   0.00107   0.00108   0.01475   0.01479   0.00694   0.00693
 -7.32441   0.00035   0.00034   0.00192   0.00192   0.02316   0.02322   0.01133   0.01133
 -7.27425   0.00052   0.00051   0.00316   0.00316   0.03403   0.03410   0.01653   0.01652
 -7.22408   0.00075   0.00074   0.00491   0.00491   0.04729   0.04736   0.02172   0.02171
 -7.17391   0.00107   0.00106   0.00730   0.00730   0.06266   0.06273   0.02608   0.02607
 -7.12375   0.00148   0.00148   0.01059   0.01059   0.07933   0.07939   0.02935   0.02934
 -7.07358   0.00196   0.00196   0.01515   0.01515   0.09578   0.09582   0.03220   0.03219
 -7.02341   0.00248   0.00248   0.02140   0.02140   0.10992   0.10996   0.03602   0.03602
 -6.97324   0.00299   0.00299   0.02975   0.02975   0.11990   0.11993   0.04240   0.04239
 -6.92308   0.00350   0.00350   0.04062   0.04062   0.12483   0.12485   0.05235   0.05234
 -6.87291   0.00400   0.00400   0.05453   0.05453   0.12522   0.12523   0.06604   0.06604
 -6.82274   0.00454   0.00454   0.07225   0.07225   0.12251   0.12252   0.08288   0.08288
 -6.77258   0.00516   0.00516   0.09451   0.09451   0.11834   0.11835   0.10170   0.10170
 -6.72241   0.00591   0.00591   0.12112   0.12112   0.11398   0.11398   0.12091   0.12091
 -6.67224   0.00681   0.00681   0.14991   0.14991   0.11015   0.11015   0.13852   0.13852
 -6.62207   0.00782   0.00782   0.17639   0.17640   0.10716   0.10717   0.15239   0.15239
 -6.57191   0.00882   0.00882   0.19508   0.19509   0.10494   0.10495   0.16087   0.16088
 -6.52174   0.00962   0.00962   0.20189   0.20191   0.10301   0.10303   0.16341   0.16342
 -6.47157   0.01002   0.01002   0.19626   0.19627   0.10086   0.10087   0.16059   0.16061
 -6.42140   0.00994   0.00994   0.18138   0.18140   0.09871   0.09872   0.15376   0.15378
 -6.37124   0.00943   0.00943   0.16271   0.16273   0.09842   0.09843   0.14456   0.14457
 -6.32107   0.00870   0.00869   0.14565   0.14567   0.10333   0.10334   0.13484   0.13485
 -6.27090   0.00798   0.00798   0.13397   0.13398   0.11686   0.11687   0.12674   0.12675
 -6.22074   0.00751   0.00751   0.12907   0.12908   0.14014   0.14014   0.12210   0.12210
 -6.17057   0.00738   0.00738   0.12998   0.12998   0.17027   0.17027   0.12139   0.12139
 -6.12040   0.00762   0.00762   0.13369   0.13370   0.20043   0.20044   0.12290   0.12290
 -6.07023   0.00823   0.00823   0.13628   0.13628   0.22218   0.22219   0.12325   0.12326
 -6.02007   0.00920   0.00921   0.13445   0.13445   0.22893   0.22894   0.11922   0.11923
 -5.96990   0.01059   0.01060   0.12697   0.12697   0.21866   0.21866   0.10964   0.10965
 -5.91973   0.01238   0.01238   0.11502   0.11502   0.19436   0.19437   0.09602   0.09603
 -5.86957   0.01438   0.01438   0.10114   0.10114   0.16235   0.16236   0.08158   0.08158
 -5.81940   0.01625   0.01625   0.08768   0.08768   0.12957   0.12958   0.06951   0.06951
 -5.76923   0.01759   0.01759   0.07581   0.07581   0.10160   0.10161   0.06172   0.06173
 -5.71906   0.01819   0.01819   0.06560   0.06560   0.08187   0.08188   0.05856   0.05857
 -5.66890   0.01815   0.01816   0.05685   0.05685   0.07185   0.07186   0.05922   0.05923
 -5.61873   0.01785   0.01786   0.04971   0.04972   0.07147   0.07148   0.06225   0.06226
 -5.56856   0.01773   0.01773   0.04472   0.04472   0.07932   0.07932   0.06589   0.06589
 -5.51839   0.01800   0.01800   0.04226   0.04226   0.09265   0.09265   0.06839   0.06840
 -5.46823   0.01853   0.01854   0.04217   0.04217   0.10762   0.10763   0.06848   0.06849
 -5.41806   0.01897   0.01898   0.04370   0.04370   0.12003   0.12004   0.06574   0.06575
 -5.36789   0.01892   0.01892   0.04588   0.04589   0.12648   0.12649   0.06079   0.06080
 -5.31773   0.01819   0.01819   0.04801   0.04802   0.12551   0.12551   0.05495   0.05496
 -5.26756   0.01693   0.01693   0.04995   0.04996   0.11799   0.11800   0.04970   0.04971
 -5.21739   0.01552   0.01551   0.05210   0.05210   0.10656   0.10656   0.04623   0.04624
 -5.16722   0.01443   0.01443   0.05501   0.05502   0.09427   0.09428   0.04525   0.04526
 -5.11706   0.01404   0.01403   0.05905   0.05906   0.08339   0.08340   0.04704   0.04704
 -5.06689   0.01442   0.01442   0.06419   0.06419   0.07487   0.07487   0.05151   0.05152
 -5.01672   0.01537   0.01537   0.07013   0.07013   0.06868   0.06868   0.05837   0.05837
 -4.96656   0.01645   0.01645   0.07664   0.07664   0.06445   0.06445   0.06709   0.06709
 -4.91639   0.01716   0.01716   0.08359   0.08359   0.06186   0.06187   0.07702   0.07702
 -4.86622   0.01716   0.01716   0.09064   0.09064   0.06061   0.06061   0.08733   0.08733
 -4.81605   0.01640   0.01640   0.09687   0.09687   0.06013   0.06013   0.09703   0.09703
 -4.76589   0.01510   0.01510   0.10076   0.10077   0.05962   0.05962   0.10501   0.10501
 -4.71572   0.01368   0.01368   0.10099   0.10099   0.05832   0.05832   0.11023   0.11023
 -4.66555   0.01252   0.01252   0.09741   0.09741   0.05596   0.05596   0.11204   0.11204
 -4.61538   0.01187   0.01187   0.09156   0.09156   0.05302   0.05302   0.11061   0.11061
 -4.56522   0.01177   0.01178   0.08596   0.08596   0.05045   0.05045   0.10698   0.10697
 -4.51505   0.01212   0.01213   0.08264   0.08264   0.04904   0.04904   0.10275   0.10276
 -4.46488   0.01271   0.01271   0.08193   0.08193   0.04876   0.04876   0.09939   0.09939
 -4.41472   0.01328   0.01328   0.08254   0.08254   0.04867   0.04867   0.09744   0.09745
 -4.36455   0.01359   0.01359   0.08270   0.08270   0.04735   0.04735   0.09634   0.09634
 -4.31438   0.01349   0.01349   0.08145   0.08145   0.04382   0.04382   0.09486   0.09487
 -4.26421   0.01298   0.01298   0.07907   0.07907   0.03807   0.03807   0.09202   0.09202
 -4.21405   0.01220   0.01219   0.07643   0.07643   0.03112   0.03112   0.08769   0.08770
 -4.16388   0.01138   0.01137   0.07407   0.07407   0.02436   0.02436   0.08257   0.08258
 -4.11371   0.01077   0.01076   0.07178   0.07178   0.01886   0.01886   0.07751   0.07751
 -4.06355   0.01057   0.01056   0.06905   0.06905   0.01501   0.01501   0.07300   0.07301
 -4.01338   0.01088   0.01088   0.06584   0.06584   0.01255   0.01255   0.06912   0.06912
 -3.96321   0.01167   0.01167   0.06288   0.06288   0.01104   0.01104   0.06582   0.06582
 -3.91304   0.01269   0.01269   0.06130   0.06130   0.01011   0.01011   0.06330   0.06330
 -3.86288   0.01356   0.01356   0.06200   0.06200   0.00971   0.00971   0.06219   0.06219
 -3.81271   0.01389   0.01389   0.06540   0.06540   0.00999   0.00999   0.06369   0.06369
 -3.76254   0.01353   0.01353   0.07166   0.07165   0.01111   0.01111   0.06950   0.06950
 -3.71237   0.01258   0.01258   0.08084   0.08083   0.01305   0.01305   0.08121   0.08121
 -3.66221   0.01135   0.01135   0.09271   0.09271   0.01539   0.01540   0.09906   0.09906
 -3.61204   0.01012   0.01012   0.10626   0.10625   0.01747   0.01747   0.12082   0.12082
 -3.56187   0.00903   0.00903   0.11959   0.11959   0.01860   0.01860   0.14175   0.14176
 -3.51171   0.00811   0.00811   0.13072   0.13071   0.01847   0.01847   0.15640   0.15641
 -3.46154   0.00734   0.00734   0.13859   0.13858   0.01732   0.01732   0.16128   0.16128
 -3.41137   0.00670   0.00671   0.14347   0.14346   0.01575   0.01576   0.15669   0.15669
 -3.36120   0.00618   0.00618   0.14621   0.14620   0.01441   0.01441   0.14645   0.14645
 -3.31104   0.00570   0.00570   0.14695   0.14695   0.01367   0.01367   0.13560   0.13561
 -3.26087   0.00518   0.00518   0.14462   0.14462   0.01360   0.01361   0.12781   0.12781
 -3.21070   0.00457   0.00457   0.13763   0.13763   0.01408   0.01408   0.12408   0.12409
 -3.16054   0.00388   0.00387   0.12550   0.12550   0.01490   0.01491   0.12332   0.12332
 -3.11037   0.00319   0.00319   0.10997   0.10997   0.01602   0.01602   0.12386   0.12386
 -3.06020   0.00263   0.00263   0.09481   0.09481   0.01756   0.01756   0.12498   0.12498
 -3.01003   0.00226   0.00226   0.08425   0.08425   0.01983   0.01983   0.12736   0.12736
 -2.95987   0.00211   0.00211   0.08106   0.08106   0.02328   0.02328   0.13214   0.13214
 -2.90970   0.00215   0.00215   0.08525   0.08525   0.02822   0.02823   0.13931   0.13931
 -2.85953   0.00230   0.00230   0.09418   0.09418   0.03478   0.03478   0.14662   0.14662
 -2.80936   0.00247   0.00247   0.10400   0.10400   0.04275   0.04275   0.15012   0.15012
 -2.75920   0.00255   0.00255   0.11158   0.11158   0.05166   0.05166   0.14634   0.14634
 -2.70903   0.00251   0.00251   0.11569   0.11569   0.06068   0.06068   0.13455   0.13455
 -2.65886   0.00231   0.00231   0.11675   0.11675   0.06862   0.06862   0.11723   0.11723
 -2.60870   0.00200   0.00200   0.11549   0.11548   0.07416   0.07416   0.09856   0.09856
 -2.55853   0.00163   0.00163   0.11186   0.11186   0.07665   0.07664   0.08211   0.08211
 -2.50836   0.00127   0.00127   0.10523   0.10523   0.07701   0.07701   0.06940   0.06940
 -2.45819   0.00097   0.00097   0.09556   0.09556   0.07796   0.07796   0.06021   0.06021
 -2.40803   0.00075   0.00075   0.08436   0.08436   0.08304   0.08304   0.05379   0.05380
 -2.35786   0.00063   0.00063   0.07453   0.07453   0.09480   0.09480   0.04984   0.04984
 -2.30769   0.00059   0.00059   0.06898   0.06898   0.11333   0.11333   0.04853   0.04853
 -2.25753   0.00060   0.00060   0.06910   0.06910   0.13580   0.13581   0.04994   0.04994
 -2.20736   0.00064   0.00064   0.07412   0.07412   0.15735   0.15736   0.05337   0.05337
 -2.15719   0.00069   0.00069   0.08145   0.08145   0.17252   0.17252   0.05724   0.05724
 -2.10702   0.00074   0.00074   0.08799   0.08799   0.17687   0.17687   0.05964   0.05964
 -2.05686   0.00079   0.00079   0.09140   0.09140   0.16845   0.16846   0.05911   0.05911
 -2.00669   0.00085   0.00085   0.09066   0.09066   0.14862   0.14862   0.05527   0.05527