 vasp.5.4.4.18Apr17-6-g9f103f2a35 (build Oct 14 2020 13:51:23) complex          
  
 executed on             LinuxIFC date 2022.02.12  13:29:17
 running on   36 total cores
 distrk:  each k-point on   36 cores,    1 groups
 distr:  one band on NCORES_PER_BAND=   1 cores,   36 groups


--------------------------------------------------------------------------------------------------------


 INCAR:
 POTCAR:    PAW_PBE C 08Apr2002                   
 POTCAR:    PAW_PBE O 08Apr2002                   
 POTCAR:    PAW_PBE Mo_sv 02Feb2006               
 POTCAR:    PAW_PBE Ag 02Apr2005                  

 ----------------------------------------------------------------------------- 
|                                                                             |
|           W    W    AA    RRRRR   N    N  II  N    N   GGGG   !!!           |
|           W    W   A  A   R    R  NN   N  II  NN   N  G    G  !!!           |
|           W    W  A    A  R    R  N N  N  II  N N  N  G       !!!           |
|           W WW W  AAAAAA  RRRRR   N  N N  II  N  N N  G  GGG   !            |
|           WW  WW  A    A  R   R   N   NN  II  N   NN  G    G                |
|           W    W  A    A  R    R  N    N  II  N    N   GGGG   !!!           |
|                                                                             |
|      For optimal performance we recommend to set                            |
|        NCORE= 4 - approx SQRT( number of cores)                             |
|      NCORE specifies how many cores store one orbital (NPAR=cpu/NCORE).     |
|      This setting can  greatly improve the performance of VASP for DFT.     |
|      The default,   NCORE=1            might be grossly inefficient         |
|      on modern multi-core architectures or massively parallel machines.     |
|      Do your own testing !!!!                                               |
|      Unfortunately you need to use the default for GW and RPA calculations. |
|      (for HF NCORE is supported but not extensively tested yet)             |
|                                                                             |
 ----------------------------------------------------------------------------- 

 POTCAR:    PAW_PBE C 08Apr2002                   
   VRHFIN =C: s2p2                                                              
   LEXCH  = PE                                                                  
   EATOM  =   147.1560 eV,   10.8157 Ry                                         
                                                                                
   TITEL  = PAW_PBE C 08Apr2002                                                 
   LULTRA =        F    use ultrasoft PP ?                                      
   IUNSCR =        1    unscreen: 0-lin 1-nonlin 2-no                           
   RPACOR =    1.200    partial core radius                                     
   POMASS =   12.011; ZVAL   =    4.000    mass and valenz                      
   RCORE  =    1.500    outmost cutoff radius                                   
   RWIGS  =    1.630; RWIGS  =    0.863    wigner-seitz radius (au A)           
   ENMAX  =  400.000; ENMIN  =  300.000 eV                                      
   ICORE  =        2    local potential                                         
   LCOR   =        T    correct aug charges                                     
   LPAW   =        T    paw PP                                                  
   EAUG   =  644.873                                                            
   DEXC   =    0.000                                                            
   RMAX   =    1.529    core radius for proj-oper                               
   RAUG   =    1.300    factor for augmentation sphere                          
   RDEP   =    1.501    radius for radial grids                                 
   RDEPT  =    1.300    core radius for aug-charge                              
                                                                                
   Atomic configuration                                                         
    4 entries                                                                   
     n  l   j            E        occ.                                          
     1  0  0.50      -273.3789   2.0000                                         
     2  0  0.50       -13.7508   2.0000                                         
     2  1  0.50        -5.2854   2.0000                                         
     3  2  1.50        -5.4423   0.0000                                         
   Description                                                                  
     l       E           TYP  RCUT    TYP  RCUT                                 
     0    -13.7508458     23  1.200                                             
     0     -8.2022199     23  1.200                                             
     1     -5.2854383     23  1.500                                             
     1     34.0145650     23  1.500                                             
     2     -5.4423304      7  1.500                                             
  local pseudopotential read in
  partial core-charges read in
  partial kinetic energy density read in
  atomic valenz-charges read in
  non local Contribution for L=           0  read in
    real space projection operators read in
  non local Contribution for L=           0  read in
    real space projection operators read in
  non local Contribution for L=           1  read in
    real space projection operators read in
  non local Contribution for L=           1  read in
    real space projection operators read in
    PAW grid and wavefunctions read in
 
   number of l-projection  operators is LMAX  =           4
   number of lm-projection operators is LMMAX =           8
 
 POTCAR:    PAW_PBE O 08Apr2002                   
   VRHFIN =O: s2p4                                                              
   LEXCH  = PE                                                                  
   EATOM  =   432.3788 eV,   31.7789 Ry                                         
                                                                                
   TITEL  = PAW_PBE O 08Apr2002                                                 
   LULTRA =        F    use ultrasoft PP ?                                      
   IUNSCR =        1    unscreen: 0-lin 1-nonlin 2-no                           
   RPACOR =    1.200    partial core radius                                     
   POMASS =   16.000; ZVAL   =    6.000    mass and valenz                      
   RCORE  =    1.520    outmost cutoff radius                                   
   RWIGS  =    1.550; RWIGS  =    0.820    wigner-seitz radius (au A)           
   ENMAX  =  400.000; ENMIN  =  300.000 eV                                      
   ICORE  =        2    local potential                                         
   LCOR   =        T    correct aug charges                                     
   LPAW   =        T    paw PP                                                  
   EAUG   =  605.392                                                            
   DEXC   =    0.000                                                            
   RMAX   =    1.553    core radius for proj-oper                               
   RAUG   =    1.300    factor for augmentation sphere                          
   RDEP   =    1.550    radius for radial grids                                 
   RDEPT  =    1.329    core radius for aug-charge                              
                                                                                
   Atomic configuration                                                         
    4 entries                                                                   
     n  l   j            E        occ.                                          
     1  0  0.50      -514.6923   2.0000                                         
     2  0  0.50       -23.9615   2.0000                                         
     2  1  0.50        -9.0305   4.0000                                         
     3  2  1.50        -9.5241   0.0000                                         
   Description                                                                  
     l       E           TYP  RCUT    TYP  RCUT                                 
     0    -23.9615318     23  1.200                                             
     0     -9.5240782     23  1.200                                             
     1     -9.0304911     23  1.520                                             
     1      8.1634956     23  1.520                                             
     2     -9.5240782      7  1.500                                             
  local pseudopotential read in
  partial core-charges read in
  partial kinetic energy density read in
  kinetic energy density of atom read in
  atomic valenz-charges read in
  non local Contribution for L=           0  read in
    real space projection operators read in
  non local Contribution for L=           0  read in
    real space projection operators read in
  non local Contribution for L=           1  read in
    real space projection operators read in
  non local Contribution for L=           1  read in
    real space projection operators read in
    PAW grid and wavefunctions read in
 
   number of l-projection  operators is LMAX  =           4
   number of lm-projection operators is LMMAX =           8
 
 POTCAR:    PAW_PBE Mo_sv 02Feb2006               
   VRHFIN =Mo: 4p5s4d                                                           
   LEXCH  = PE                                                                  
   EATOM  =  1862.2866 eV,  136.8742 Ry                                         
                                                                                
   TITEL  = PAW_PBE Mo_sv 02Feb2006                                             
   LULTRA =        F    use ultrasoft PP ?                                      
   IUNSCR =        1    unscreen: 0-lin 1-nonlin 2-no                           
   RPACOR =    2.200    partial core radius                                     
   POMASS =   95.940; ZVAL   =   14.000    mass and valenz                      
   RCORE  =    2.500    outmost cutoff radius                                   
   RWIGS  =    2.750; RWIGS  =    1.455    wigner-seitz radius (au A)           
   ENMAX  =  242.676; ENMIN  =  182.007 eV                                      
   ICORE  =        3    local potential                                         
   LCOR   =        T    correct aug charges                                     
   LPAW   =        T    paw PP                                                  
   EAUG   =  446.014                                                            
   DEXC   =    0.000                                                            
   RMAX   =    2.563    core radius for proj-oper                               
   RAUG   =    1.300    factor for augmentation sphere                          
   RDEP   =    2.641    radius for radial grids                                 
   RDEPT  =    2.031    core radius for aug-charge                              
                                                                                
   Atomic configuration                                                         
   11 entries                                                                   
     n  l   j            E        occ.                                          
     1  0  0.50    -19819.0341   2.0000                                         
     2  0  0.50     -2799.0127   2.0000                                         
     2  1  1.50     -2502.0276   6.0000                                         
     3  0  0.50      -476.4449   2.0000                                         
     3  1  1.50      -379.1496   6.0000                                         
     3  2  2.50      -220.9367  10.0000                                         
     4  0  0.50       -64.3378   2.0000                                         
     5  0  0.50        -4.0862   1.0000                                         
     4  1  1.50       -38.4773   6.0000                                         
     4  2  2.50        -3.7535   5.0000                                         
     4  3  2.50        -1.3606   0.0000                                         
   Description                                                                  
     l       E           TYP  RCUT    TYP  RCUT                                 
     0    -64.3377829     23  2.100                                             
     0     -4.0861640     23  2.400                                             
     1    -38.4772993     23  2.100                                             
     1     13.6058260     23  2.100                                             
     2     -3.7534941     23  2.400                                             
     2     -5.1140767     23  2.400                                             
     3     -4.0817478     23  2.500                                             
  local pseudopotential read in
  partial core-charges read in
  partial kinetic energy density read in
  atomic valenz-charges read in
  non local Contribution for L=           0  read in
    real space projection operators read in
  non local Contribution for L=           0  read in
    real space projection operators read in
  non local Contribution for L=           1  read in
    real space projection operators read in
  non local Contribution for L=           1  read in
    real space projection operators read in
  non local Contribution for L=           2  read in
    real space projection operators read in
  non local Contribution for L=           2  read in
    real space projection operators read in
    PAW grid and wavefunctions read in
 
   number of l-projection  operators is LMAX  =           6
   number of lm-projection operators is LMMAX =          18
 
 POTCAR:    PAW_PBE Ag 02Apr2005                  
   VRHFIN =Ag : s1 d10                                                          
   LEXCH  = PE                                                                  
   EATOM  =  1037.2675 eV,   76.2370 Ry                                         
                                                                                
   TITEL  = PAW_PBE Ag 02Apr2005                                                
   LULTRA =        F    use ultrasoft PP ?                                      
   IUNSCR =        1    unscreen: 0-lin 1-nonlin 2-no                           
   RPACOR =    2.000    partial core radius                                     
   POMASS =  107.868; ZVAL   =   11.000    mass and valenz                      
   RCORE  =    2.500    outmost cutoff radius                                   
   RWIGS  =    2.840; RWIGS  =    1.503    wigner-seitz radius (au A)           
   ENMAX  =  249.844; ENMIN  =  187.383 eV                                      
   ICORE  =        3    local potential                                         
   LCOR   =        T    correct aug charges                                     
   LPAW   =        T    paw PP                                                  
   EAUG   =  412.496                                                            
   DEXC   =    0.000                                                            
   RMAX   =    2.560    core radius for proj-oper                               
   RAUG   =    1.300    factor for augmentation sphere                          
   RDEP   =    2.576    radius for radial grids                                 
   RDEPT  =    2.072    core radius for aug-charge                              
                                                                                
   Atomic configuration                                                         
   12 entries                                                                   
     n  l   j            E        occ.                                          
     1  0  0.50    -25324.9161   2.0000                                         
     2  0  0.50     -3728.5341   2.0000                                         
     2  1  1.50     -3344.0404   6.0000                                         
     3  0  0.50      -683.5581   2.0000                                         
     3  1  1.50      -557.3225   6.0000                                         
     3  2  2.50      -358.3853  10.0000                                         
     4  0  0.50       -95.0341   2.0000                                         
     4  1  1.50       -58.5511   6.0000                                         
     4  2  2.50        -7.4440  10.0000                                         
     5  0  0.50        -4.4045   1.0000                                         
     5  1  0.50        -1.3606   0.0000                                         
     4  3  2.50        -1.3606   0.0000                                         
   Description                                                                  
     l       E           TYP  RCUT    TYP  RCUT                                 
     2     -7.4439781     23  2.400                                             
     2     -8.8045607     23  2.400                                             
     0     -4.4044681     23  2.400                                             
     0      1.9520038     23  2.400                                             
     1     -1.3605826     23  2.500                                             
     1     27.2116520     23  2.500                                             
     3     -4.0817478     23  2.400                                             
  local pseudopotential read in
  partial core-charges read in
  partial kinetic energy density read in
  atomic valenz-charges read in
  non local Contribution for L=           2  read in
    real space projection operators read in
  non local Contribution for L=           2  read in
    real space projection operators read in
  non local Contribution for L=           0  read in
    real space projection operators read in
  non local Contribution for L=           0  read in
    real space projection operators read in
  non local Contribution for L=           1  read in
    real space projection operators read in
  non local Contribution for L=           1  read in
    real space projection operators read in
    PAW grid and wavefunctions read in
 
   number of l-projection  operators is LMAX  =           6
   number of lm-projection operators is LMMAX =          18
 

 ----------------------------------------------------------------------------- 
|                                                                             |
|  ADVICE TO THIS USER RUNNING 'VASP/VAMP'   (HEAR YOUR MASTER'S VOICE ...):  |
|                                                                             |
|      You have a (more or less) 'large supercell' and for larger cells       |
|      it might be more efficient to use real space projection opertators     |
|      So try LREAL= Auto  in the INCAR   file.                               |
|      Mind:          For very  accurate calculation you might also keep the  |
|      reciprocal projection scheme          (i.e. LREAL=.FALSE.)             |
|                                                                             |
 ----------------------------------------------------------------------------- 

  PAW_PBE C 08Apr2002                   :
 energy of atom  1       EATOM= -147.1560
 kinetic energy error for atom=    0.0057 (will be added to EATOM!!)
  PAW_PBE O 08Apr2002                   :
 energy of atom  2       EATOM= -432.3788
 kinetic energy error for atom=    0.0168 (will be added to EATOM!!)
  PAW_PBE Mo_sv 02Feb2006               :
 energy of atom  3       EATOM=-1862.2866
 kinetic energy error for atom=    0.0041 (will be added to EATOM!!)
  PAW_PBE Ag 02Apr2005                  :
 energy of atom  4       EATOM=-1037.2675
 kinetic energy error for atom=    0.0019 (will be added to EATOM!!)
 
 
 POSCAR: SC111 file generated by VASPKIT         
  positions in direct lattice
  velocities in cartesian coordinates
 exchange correlation table for  LEXCH =        8
   RHO(1)=    0.500       N(1)  =     2000
   RHO(2)=  100.500       N(2)  =     4000

 VTST: version 3.2, (02/03/18)

 CHAIN: initializing optimizer
 
 OPT: Using VASP Dynamics algorithm
 CHAIN: Read ICHAIN            0
 
 POSCAR: SC111 file generated by VASPKIT         
  positions in direct lattice
  velocities in cartesian coordinates
 


--------------------------------------------------------------------------------------------------------


 ion  position               nearest neighbor table
   1  0.999  0.001  0.498-  35 2.13  28 2.13  42 2.14  30 2.16  36 2.16  44 2.16
   2  0.998  0.332  0.499-  37 2.12  33 2.14  43 2.15  42 2.15  28 2.17  29 2.17
   3  0.999  0.664  0.498-  34 2.13  29 2.13  43 2.14  30 2.16  44 2.16  38 2.16
   4  0.336  0.001  0.498-  31 2.13  32 2.13  39 2.14  30 2.16  36 2.16  38 2.16
   5  0.327  0.322  0.498-  36 2.10  31 2.12  28 2.12  40 2.13  37 2.13  45 2.76
   6  0.327  0.673  0.498-  38 2.10  29 2.12  32 2.12  41 2.13  37 2.13  45 2.76
   7  0.668  0.002  0.499-  41 2.12  33 2.14  39 2.15  42 2.15  35 2.17  32 2.17
   8  0.668  0.332  0.499-  40 2.12  33 2.14  43 2.15  39 2.15  31 2.17  34 2.17
   9  0.678  0.673  0.498-  44 2.10  34 2.12  35 2.12  40 2.13  41 2.13  45 2.76
  10  0.000  1.000  0.602-  35 2.03  28 2.03  30 2.07
  11  0.002  0.335  0.602-  33 2.06  28 2.08  29 2.08
  12  0.000  0.667  0.602-  29 2.03  34 2.03  30 2.07
  13  0.333  1.000  0.602-  32 2.03  31 2.03  30 2.07
  14  0.309  0.285  0.606-  31 2.00  28 2.00  45 2.11
  15  0.309  0.691  0.606-  32 2.00  29 2.00  45 2.11
  16  0.665  0.998  0.602-  33 2.06  32 2.08  35 2.08
  17  0.665  0.335  0.602-  33 2.06  31 2.08  34 2.08
  18  0.715  0.691  0.606-  34 2.00  35 2.00  45 2.11
  19  0.998  0.002  0.395-  42 2.06  36 2.06  44 2.06
  20  0.002  0.334  0.396-  43 2.05  42 2.05  37 2.09
  21  0.998  0.663  0.395-  43 2.06  44 2.06  38 2.06
  22  0.337  0.002  0.395-  39 2.06  36 2.06  38 2.06
  23  0.336  0.339  0.398-  40 2.06  37 2.06  36 2.06
  24  0.336  0.664  0.398-  41 2.06  37 2.06  38 2.06
  25  0.666  0.998  0.396-  39 2.05  42 2.05  41 2.09
  26  0.666  0.334  0.396-  43 2.05  39 2.05  40 2.09
  27  0.661  0.664  0.398-  40 2.06  41 2.06  44 2.06
  28  0.111  0.218  0.553-  14 2.00  10 2.03  11 2.08   5 2.12   1 2.13   2 2.17  35 2.84  30 2.85
                            31 2.85  33 2.90  29 2.95  45 3.00  37 3.14  36 3.20  42 3.20
  29  0.111  0.559  0.553-  15 2.00  12 2.03  11 2.08   6 2.12   3 2.13   2 2.17  34 2.84  30 2.85
                            32 2.85  33 2.90  28 2.95  45 3.00  37 3.14  38 3.20  43 3.20
  30  0.111  0.889  0.552-  13 2.07  12 2.07  10 2.07   4 2.16   1 2.16   3 2.16  35 2.85  28 2.85
                            31 2.85  34 2.85  32 2.85  29 2.85  38 3.18  44 3.18  36 3.18
  31  0.441  0.218  0.553-  14 2.00  13 2.03  17 2.08   5 2.12   4 2.13   8 2.17  32 2.84  30 2.85
                            28 2.85  33 2.90  34 2.95  45 3.00  40 3.14  36 3.20  39 3.20
  32  0.441  0.889  0.553-  15 2.00  13 2.03  16 2.08   6 2.12   4 2.13   7 2.17  31 2.84  30 2.85
                            29 2.85  33 2.90  35 2.95  45 3.00  41 3.14  38 3.20  39 3.20
  33  0.778  0.222  0.554-  11 2.06  17 2.06  16 2.06   8 2.14   2 2.14   7 2.14  31 2.90  28 2.90
                            32 2.90  35 2.90  34 2.90  29 2.90  39 3.21  42 3.21  43 3.21
  34  0.782  0.559  0.553-  18 2.00  12 2.03  17 2.08   9 2.12   3 2.13   8 2.17  29 2.84  30 2.85
                            35 2.85  33 2.90  31 2.95  45 3.00  40 3.14  44 3.20  43 3.20
  35  0.782  0.889  0.553-  18 2.00  10 2.03  16 2.08   9 2.12   1 2.13   7 2.17  28 2.84  30 2.85
                            34 2.85  33 2.90  32 2.95  45 3.00  41 3.14  44 3.20  42 3.20
  36  0.222  0.110  0.443-  23 2.06  22 2.06  19 2.06   5 2.10   4 2.16   1 2.16  38 2.86  44 2.86
                            40 2.89  37 2.89  39 2.89  42 2.89  30 3.18  31 3.20  28 3.20
  37  0.222  0.444  0.447-  23 2.06  24 2.06  20 2.09   2 2.12   6 2.13   5 2.13  40 2.88  41 2.88
                            43 2.88  42 2.88  36 2.89  38 2.89  29 3.14  28 3.14
  38  0.222  0.778  0.443-  24 2.06  21 2.06  22 2.06   6 2.10   3 2.16   4 2.16  44 2.86  36 2.86
                            41 2.89  37 2.89  39 2.89  43 2.89  30 3.18  32 3.20  29 3.20
  39  0.557  0.112  0.444-  25 2.05  26 2.05  22 2.06   4 2.14   7 2.15   8 2.15  42 2.86  43 2.86
                            41 2.88  40 2.88  36 2.89  38 2.89  31 3.20  32 3.20  33 3.21
  40  0.556  0.444  0.447-  23 2.06  27 2.06  26 2.09   8 2.12   5 2.13   9 2.13  37 2.88  41 2.88
                            43 2.88  39 2.88  44 2.89  36 2.89  34 3.14  31 3.14
  41  0.556  0.778  0.447-  24 2.06  27 2.06  25 2.09   7 2.12   6 2.13   9 2.13  37 2.88  40 2.88
                            39 2.88  42 2.88  44 2.89  38 2.89  32 3.14  35 3.14
  42  0.888  0.112  0.444-  25 2.05  20 2.05  19 2.06   1 2.14   7 2.15   2 2.15  39 2.86  43 2.86
                            37 2.88  41 2.88  36 2.89  44 2.89  28 3.20  35 3.20  33 3.21
  43  0.888  0.443  0.444-  20 2.05  26 2.05  21 2.06   3 2.14   8 2.15   2 2.15  39 2.86  42 2.86
                            37 2.88  40 2.88  44 2.89  38 2.89  29 3.20  34 3.20  33 3.21
  44  0.890  0.778  0.443-  27 2.06  21 2.06  19 2.06   9 2.10   3 2.16   1 2.16  38 2.86  36 2.86
                            40 2.89  41 2.89  42 2.89  43 2.89  30 3.18  35 3.20  34 3.20
  45  0.444  0.556  0.584-  15 2.11  18 2.11  14 2.11   6 2.76   9 2.76   5 2.76  29 3.00  32 3.00
                            35 3.00  28 3.00  34 3.00  31 3.00
 
  LATTYP: Found a hexagonal cell.
 ALAT       =     8.6444477387
 C/A-ratio  =     2.8920297462
  
  Lattice vectors:
  
 A1 = (   8.6444420000,   0.0000000000,   0.0000000000)
 A2 = (  -4.3222210000,   7.4863130000,   0.0000000000)
 A3 = (   0.0000000000,   0.0000000000,  25.0000000000)


Analysis of symmetry for initial positions (statically):
=====================================================================
 Subroutine PRICEL returns:
 Original cell was already a primitive cell.
 

 Routine SETGRP: Setting up the symmetry group for a 
 hexagonal supercell.


 Subroutine GETGRP returns: Found  6 space group operations
 (whereof  2 operations were pure point group operations)
 out of a pool of 24 trial point group operations.


The static configuration has the point symmetry C_1h.
 The point group associated with its full space group is C_3v.


Analysis of symmetry for dynamics (positions and initial velocities):
=====================================================================
 Subroutine PRICEL returns:
 Original cell was already a primitive cell.
 

 Routine SETGRP: Setting up the symmetry group for a 
 hexagonal supercell.


 Subroutine GETGRP returns: Found  6 space group operations
 (whereof  2 operations were pure point group operations)
 out of a pool of 24 trial point group operations.


The dynamic configuration has the point symmetry C_1h.
 The point group associated with its full space group is C_3v.


Analysis of structural, dynamic, and magnetic symmetry:
=====================================================================
 Subroutine PRICEL returns:
 Original cell was already a primitive cell.
 

 Routine SETGRP: Setting up the symmetry group for a 
 hexagonal supercell.


 Subroutine GETGRP returns: Found  6 space group operations
 (whereof  2 operations were pure point group operations)
 out of a pool of 24 trial point group operations.


The magnetic configuration has the point symmetry C_1h.
 The point group associated with its full space group is C_3v.


 Subroutine INISYM returns: Found  6 space group operations
 (whereof  2 operations are pure point group operations),
 and found     1 'primitive' translations

 
 
 KPOINTS: Auto                                    

Automatic generation of k-mesh.
Space group operators:
 irot       det(A)        alpha          n_x          n_y          n_z        tau_x        tau_y        tau_z
    1     1.000000     0.000000     1.000000     0.000000     0.000000     0.000000     0.000000     0.000000
    2    -1.000000   180.000000    -0.500000    -0.866025     0.000000     0.000000     0.000000     0.000000
    3     1.000000   120.000000     0.000000     0.000000    -1.000000     0.000000     0.666668     0.000000
    4     1.000000   120.000000     0.000000     0.000000     1.000000     0.333332     0.000000     0.000000
    5    -1.000000   180.000000     1.000000     0.000000     0.000000     0.333332     0.000000     0.000000
    6    -1.000000   180.000000     0.500000    -0.866025     0.000000     0.000000     0.666668     0.000000
 
 Subroutine IBZKPT returns following result:
 ===========================================
 
 Found      3 irreducible k-points:
 
 Following reciprocal coordinates:
            Coordinates               Weight
  0.000000  0.000000  0.000000      1.000000
  0.333333  0.000000  0.000000      6.000000
  0.333333  0.333333  0.000000      2.000000
 
 Following cartesian coordinates:
            Coordinates               Weight
  0.000000  0.000000  0.000000      1.000000
  0.038560  0.022263  0.000000      6.000000
  0.038560  0.066789  0.000000      2.000000
 


--------------------------------------------------------------------------------------------------------




 Dimension of arrays:
   k-points           NKPTS =      3   k-points in BZ     NKDIM =      3   number of bands    NBANDS=    288
   number of dos      NEDOS =    301   number of ions     NIONS =     45
   non local maximal  LDIM  =      6   non local SUM 2l+1 LMDIM =     18
   total plane-waves  NPLWV = 437400
   max r-space proj   IRMAX =      1   max aug-charges    IRDMAX=  13491
   dimension x,y,z NGX =    54 NGY =   54 NGZ =  150
   dimension x,y,z NGXF=   108 NGYF=  108 NGZF=  300
   support grid    NGXF=   108 NGYF=  108 NGZF=  300
   ions per type =               9  18  17   1
   NGX,Y,Z   is equivalent  to a cutoff of  10.39, 10.39,  9.97 a.u.
   NGXF,Y,Z  is equivalent  to a cutoff of  20.77, 20.77, 19.95 a.u.

 SYSTEM =  unknown system                          
 POSCAR =  SC111 file generated by VASPKIT         

 Startparameter for this run:
   NWRITE =      2    write-flag & timer
   PREC   = normal    normal or accurate (medium, high low for compatibility)
   ISTART =      0    job   : 0-new  1-cont  2-samecut
   ICHARG =      2    charge: 1-file 2-atom 10-const
   ISPIN  =      2    spin polarized calculation?
   LNONCOLLINEAR =      F non collinear calculations
   LSORBIT =      F    spin-orbit coupling
   INIWAV =      1    electr: 0-lowe 1-rand  2-diag
   LASPH  =      F    aspherical Exc in radial PAW
   METAGGA=      F    non-selfconsistent MetaGGA calc.

 Electronic Relaxation 1
   ENCUT  =  600.0 eV  44.10 Ry    6.64 a.u.  17.27 17.27 49.93*2*pi/ulx,y,z
   ENINI  =  600.0     initial cutoff
   ENAUG  =  644.9 eV  augmentation charge cutoff
   NELM   =    200;   NELMIN=  5; NELMDL= -5     # of ELM steps 
   EDIFF  = 0.1E-04   stopping-criterion for ELM
   LREAL  =      F    real-space projection
   NLSPLINE    = F    spline interpolate recip. space projectors
   LCOMPAT=      F    compatible to vasp.4.4
   GGA_COMPAT  = T    GGA compatible to vasp.4.4-vasp.4.6
   LMAXPAW     = -100 max onsite density
   LMAXMIX     =    2 max onsite mixed and CHGCAR
   VOSKOWN=      0    Vosko Wilk Nusair interpolation
   ROPT   =    0.00000   0.00000   0.00000   0.00000
 Ionic relaxation
   EDIFFG = -.1E-01   stopping-criterion for IOM
   NSW    =      1    number of steps for IOM
   NBLOCK =      1;   KBLOCK =      1    inner block; outer block 
   IBRION =     -1    ionic relax: 0-MD 1-quasi-New 2-CG
   NFREE  =      0    steps in history (QN), initial steepest desc. (CG)
   ISIF   =      2    stress and relaxation
   IWAVPR =     10    prediction:  0-non 1-charg 2-wave 3-comb
   ISYM   =      2    0-nonsym 1-usesym 2-fastsym
   LCORR  =      T    Harris-Foulkes like correction to forces

   POTIM  = 0.5000    time-step for ionic-motion
   TEIN   =    0.0    initial temperature
   TEBEG  =    0.0;   TEEND  =   0.0 temperature during run
   SMASS  =  -3.00    Nose mass-parameter (am)
   estimated Nose-frequenzy (Omega)   =  0.10E-29 period in steps =****** mass=  -0.171E-26a.u.
   SCALEE = 1.0000    scale energy and forces
   NPACO  =    256;   APACO  = 16.0  distance and # of slots for P.C.
   PSTRESS=    0.0 pullay stress

  Mass of Ions in am
   POMASS =  12.01 16.00 95.94107.87
  Ionic Valenz
   ZVAL   =   4.00  6.00 14.00 11.00
  Atomic Wigner-Seitz radii
   RWIGS  =  -1.00 -1.00 -1.00 -1.00
  virtual crystal weights 
   VCA    =   1.00  1.00  1.00  1.00
   NELECT =     393.0000    total number of electrons
   NUPDOWN=      -1.0000    fix difference up-down

 DOS related values:
   EMIN   =  10.00;   EMAX   =-10.00  energy-range for DOS
   EFERMI =   0.00
   ISMEAR =     0;   SIGMA  =   0.02  broadening in eV -4-tet -1-fermi 0-gaus

 Electronic relaxation 2 (details)
   IALGO  =     38    algorithm
   LDIAG  =      T    sub-space diagonalisation (order eigenvalues)
   LSUBROT=      F    optimize rotation matrix (better conditioning)
   TURBO    =      0    0=normal 1=particle mesh
   IRESTART =      0    0=no restart 2=restart with 2 vectors
   NREBOOT  =      0    no. of reboots
   NMIN     =      0    reboot dimension
   EREF     =   0.00    reference energy to select bands
   IMIX   =      4    mixing-type and parameters
     AMIX     =   0.40;   BMIX     =  1.00
     AMIX_MAG =   1.60;   BMIX_MAG =  1.00
     AMIN     =   0.10
     WC   =   100.;   INIMIX=   1;  MIXPRE=   1;  MAXMIX= -45

 Intra band minimization:
   WEIMIN = 0.0000     energy-eigenvalue tresh-hold
   EBREAK =  0.87E-08  absolut break condition
   DEPER  =   0.30     relativ break condition  

   TIME   =   0.40     timestep for ELM

  volume/ion in A,a.u.               =      35.95       242.62
  Fermi-wavevector in a.u.,A,eV,Ry     =   1.021466  1.930291 14.196228  1.043393
  Thomas-Fermi vector in A             =   2.155092
 
 Write flags
   LWAVE        =      T    write WAVECAR
   LDOWNSAMPLE  =      F    k-point downsampling of WAVECAR
   LCHARG       =      T    write CHGCAR
   LVTOT        =      F    write LOCPOT, total local potential
   LVHAR        =      F    write LOCPOT, Hartree potential only
   LELF         =      F    write electronic localiz. function (ELF)
   LORBIT       =     11    0 simple, 1 ext, 2 COOP (PROOUT), +10 PAW based schemes


 Dipole corrections
   LMONO  =      F    monopole corrections only (constant potential shift)
   LDIPOL =      F    correct potential (dipole corrections)
   IDIPOL =      0    1-x, 2-y, 3-z, 4-all directions 
   EPSILON=  1.0000000 bulk dielectric constant

 Exchange correlation treatment:
   GGA     =    --    GGA type
   LEXCH   =     8    internal setting for exchange type
   VOSKOWN=      0    Vosko Wilk Nusair interpolation
   LHFCALC =     F    Hartree Fock is set to
   LHFONE  =     F    Hartree Fock one center treatment
   AEXX    =    0.0000 exact exchange contribution

 Linear response parameters
   LEPSILON=     F    determine dielectric tensor
   LRPA    =     F    only Hartree local field effects (RPA)
   LNABLA  =     F    use nabla operator in PAW spheres
   LVEL    =     F    velocity operator in full k-point grid
   LINTERFAST=   F  fast interpolation
   KINTER  =     0    interpolate to denser k-point grid
   CSHIFT  =0.1000    complex shift for real part using Kramers Kronig
   OMEGAMAX=  -1.0    maximum frequency
   DEG_THRESHOLD= 0.2000000E-02 threshold for treating states as degnerate
   RTIME   =   -0.100 relaxation time in fs
  (WPLASMAI=    0.000 imaginary part of plasma frequency in eV, 0.658/RTIME)
   DFIELD  = 0.0000000 0.0000000 0.0000000 field for delta impulse in time
 
 Orbital magnetization related:
   ORBITALMAG=     F  switch on orbital magnetization
   LCHIMAG   =     F  perturbation theory with respect to B field
   DQ        =  0.001000  dq finite difference perturbation B field
   LLRAUG    =     F  two centre corrections for induced B field



--------------------------------------------------------------------------------------------------------


 Static calculation
 charge density and potential will be updated during run
 spin polarized calculation
 Variant of blocked Davidson
 Davidson routine will perform the subspace rotation
 perform sub-space diagonalisation
    after iterative eigenvector-optimisation
 modified Broyden-mixing scheme, WC =      100.0
 initial mixing is a Kerker type mixing with AMIX =  0.4000 and BMIX =      1.0000
 Hartree-type preconditioning will be used
 using additional bands           91
 reciprocal scheme for non local part
 use partial core corrections
 calculate Harris-corrections to forces 
   (improved forces if not selfconsistent)
 use gradient corrections 
 use of overlap-Matrix (Vanderbilt PP)
 Gauss-broadening in eV      SIGMA  =   0.02


--------------------------------------------------------------------------------------------------------


  energy-cutoff  :      600.00
  volume of cell :     1617.87
      direct lattice vectors                 reciprocal lattice vectors
     8.644442000  0.000000000  0.000000000     0.115681267  0.066788551  0.000000000
    -4.322221000  7.486313000  0.000000000     0.000000000  0.133577103  0.000000000
     0.000000000  0.000000000 25.000000000     0.000000000  0.000000000  0.040000000

  length of vectors
     8.644442000  8.644447739 25.000000000     0.133577191  0.133577103  0.040000000


 
 k-points in units of 2pi/SCALE and weight: Auto                                    
   0.00000000  0.00000000  0.00000000       0.111
   0.03856042  0.02226285  0.00000000       0.667
   0.03856042  0.06678855  0.00000000       0.222
 
 k-points in reciprocal lattice and weights: Auto                                    
   0.00000000  0.00000000  0.00000000       0.111
   0.33333333  0.00000000  0.00000000       0.667
   0.33333333  0.33333333  0.00000000       0.222
 
 position of ions in fractional coordinates (direct lattice) 
   0.99884800  0.00115200  0.49819400
   0.99784200  0.33225400  0.49942300
   0.99884800  0.66436300  0.49819400
   0.33563700  0.00115200  0.49819400
   0.32749200  0.32165000  0.49849300
   0.32749200  0.67250800  0.49849300
   0.66774600  0.00215800  0.49942300
   0.66774600  0.33225400  0.49942300
   0.67835000  0.67250800  0.49849300
   0.00036200  0.99963800  0.60152200
   0.00244400  0.33455500  0.60208400
   0.00036300  0.66739200  0.60152200
   0.33260800  0.99963700  0.60152200
   0.30895300  0.28457200  0.60605600
   0.30895300  0.69104800  0.60605600
   0.66544500  0.99755600  0.60208400
   0.66544500  0.33455500  0.60208400
   0.71542800  0.69104700  0.60605600
   0.99813400  0.00186600  0.39503300
   0.00189900  0.33428300  0.39637000
   0.99813400  0.66293500  0.39503300
   0.33706500  0.00186600  0.39503300
   0.33610200  0.33886900  0.39794900
   0.33610000  0.66390000  0.39794900
   0.66571700  0.99810100  0.39637000
   0.66571700  0.33428300  0.39637000
   0.66113100  0.66389800  0.39794900
   0.11094100  0.21811700  0.55328700
   0.11094100  0.55949000  0.55328700
   0.11111100  0.88888900  0.55224300
   0.44051000  0.21811700  0.55328700
   0.44051000  0.88905900  0.55328700
   0.77777800  0.22222200  0.55421900
   0.78188300  0.55949000  0.55328700
   0.78188300  0.88905900  0.55328700
   0.22158000  0.10982600  0.44343600
   0.22228900  0.44447800  0.44744600
   0.22157900  0.77842100  0.44343600
   0.55738200  0.11202400  0.44407500
   0.55552200  0.44447800  0.44744600
   0.55552200  0.77771100  0.44744600
   0.88797600  0.11202400  0.44407500
   0.88797600  0.44261800  0.44407500
   0.89017400  0.77842000  0.44343600
   0.44444400  0.55555600  0.58357600
 
 position of ions in cartesian coordinates  (Angst):
   8.62950440  0.00862423 12.45485000
   7.18971208  2.48735744 12.48557500
   5.76295989  4.97362936 12.45485000
   2.89641538  0.00862423 12.45485000
   1.44074321  2.40797258 12.46232500
  -0.07574260  5.03460538 12.46232500
   5.76296421  0.01615546 12.48557500
   4.33621635  2.48735744 12.48557500
   2.95722903  5.03460538 12.46232500
  -4.31752707  7.48360295 15.03805000
  -1.42489363  2.50458345 15.05210000
  -2.88147779  4.99630541 15.03805000
  -1.44544147  7.48359547 15.03805000
   1.44074321  2.13039506 15.15140000
  -0.31613589  5.17340163 15.15140000
   1.44074321  7.46801645 15.05210000
   4.30638006  2.50458345 15.05210000
   3.19761800  5.17339414 15.15140000
   8.62024621  0.01396946  9.87582500
  -1.42842921  2.50254717  9.90925000
   5.76295989  4.96293891  9.87582500
   2.90567358  0.01396946  9.87582500
   1.44074754  2.53687940  9.94872500
   0.03587443  4.97016320  9.94872500
   1.44073889  7.47209649  9.90925000
   4.30990699  2.50254717  9.90925000
   2.84559471  4.97014823  9.94872500
   0.01627316  1.63289213 13.83217500
  -1.45921639  4.18851726 13.83217500
  -2.88148211  6.65450128 13.80607500
   2.86521327  1.63289213 13.83217500
  -0.03474633  6.65577395 13.83217500
   5.76296421  1.66362345 13.85547500
   4.34070282  4.18851726 13.83217500
   2.91623276  6.65577395 13.83217500
   1.44074321  0.82219181 11.08590000
   0.00043222  3.32750143 11.18615000
  -1.44908078  5.82750325 11.08590000
   4.33406389  0.83864673 11.10187500
   2.88104556  3.32750143 11.18615000
   1.44073889  5.82218797 11.18615000
   7.19186454  0.83864673 11.10187500
   5.76296421  3.31357689 11.10187500
   4.33055424  5.82749577 11.08590000
   1.44073457  4.15906611 14.58940000
 


--------------------------------------------------------------------------------------------------------


 k-point  1 :   0.0000 0.0000 0.0000  plane waves:   53979
 k-point  2 :   0.3333 0.0000 0.0000  plane waves:   53984
 k-point  3 :   0.3333 0.3333 0.0000  plane waves:   53955

 maximum and minimum number of plane-waves per node :     53984    53955

 maximum number of plane-waves:     53984
 maximum index in each direction: 
   IXMAX=   17   IYMAX=   17   IZMAX=   49
   IXMIN=  -17   IYMIN=  -17   IZMIN=  -49


 serial   3D FFT for wavefunctions
 parallel 3D FFT for charge:
    minimum data exchange during FFTs selected (reduces bandwidth)


 total amount of memory used by VASP MPI-rank0   255019. kBytes
=======================================================================

   base      :      30000. kBytes
   nonl-proj :     132192. kBytes
   fftplans  :       5074. kBytes
   grid      :      44468. kBytes
   one-center:       1399. kBytes
   wavefun   :      41886. kBytes
 
     INWAV:  cpu time    0.0000: real time    0.0002
 Broyden mixing: mesh for mixing (old mesh)
   NGX = 35   NGY = 35   NGZ = 99
  (NGX  =108   NGY  =108   NGZ  =300)
  gives a total of 121275 points

 initial charge density was supplied:
 charge density of overlapping atoms calculated
 number of electron     393.0000000 magnetization      45.0000000
 keeping initial charge density in first step


--------------------------------------------------------------------------------------------------------


 Maximum index for augmentation-charges          269 (set IRDMAX)


--------------------------------------------------------------------------------------------------------


 First call to EWALD:  gamma=   0.151
 Maximum number of real-space cells 4x 4x 2
 Maximum number of reciprocal cells 2x 2x 5

    FEWALD:  cpu time    0.0018: real time    0.0030


--------------------------------------- Iteration      1(   1)  ---------------------------------------


    POTLOK:  cpu time    0.1608: real time    0.1819
    SETDIJ:  cpu time    0.0115: real time    0.0115
     EDDAV:  cpu time   49.6755: real time   49.7289
       DOS:  cpu time    0.0055: real time    0.0055
    --------------------------------------------
      LOOP:  cpu time   49.8533: real time   49.9279

 eigenvalue-minimisations  :  3996
 total energy-change (2. order) : 0.4012180E+04  (-0.2348564E+05)
 number of electron     393.0000000 magnetization      45.0000000
 augmentation part      393.0000000 magnetization      45.0000000

 Free energy of the ion-electron system (eV)
  ---------------------------------------------------
  alpha Z        PSCENC =       708.51951337
  Ewald energy   TEWEN  =    220142.03782711
  -Hartree energ DENC   =   -256893.26718362
  -exchange      EXHF   =         0.00000000
  -V(xc)+E(xc)   XCENC  =      1751.23507995
  PAW double counting   =     33676.09029089   -33353.10990192
  entropy T*S    EENTRO =        -0.00540693
  eigenvalues    EBANDS =     -3822.25647895
  atomic energy  EATOM  =     41802.93668617
  Solvation  Ediel_sol  =         0.00000000
  ---------------------------------------------------
  free energy    TOTEN  =      4012.18042607 eV

  energy without entropy =     4012.18583300  energy(sigma->0) =     4012.18312953


--------------------------------------------------------------------------------------------------------




--------------------------------------- Iteration      1(   2)  ---------------------------------------


     EDDAV:  cpu time   52.5778: real time   52.6405
       DOS:  cpu time    0.0049: real time    0.0049
    --------------------------------------------
      LOOP:  cpu time   52.5827: real time   52.6453

 eigenvalue-minimisations  :  4284
 total energy-change (2. order) :-0.4209269E+04  (-0.4107747E+04)
 number of electron     393.0000000 magnetization      45.0000000
 augmentation part      393.0000000 magnetization      45.0000000

 Free energy of the ion-electron system (eV)
  ---------------------------------------------------
  alpha Z        PSCENC =       708.51951337
  Ewald energy   TEWEN  =    220142.03782711
  -Hartree energ DENC   =   -256893.26718362
  -exchange      EXHF   =         0.00000000
  -V(xc)+E(xc)   XCENC  =      1751.23507995
  PAW double counting   =     33676.09029089   -33353.10990192
  entropy T*S    EENTRO =        -0.00695090
  eigenvalues    EBANDS =     -8031.52432223
  atomic energy  EATOM  =     41802.93668617
  Solvation  Ediel_sol  =         0.00000000
  ---------------------------------------------------
  free energy    TOTEN  =      -197.08896119 eV

  energy without entropy =     -197.08201029  energy(sigma->0) =     -197.08548574


--------------------------------------------------------------------------------------------------------




--------------------------------------- Iteration      1(   3)  ---------------------------------------


     EDDAV:  cpu time   50.8284: real time   50.8795
       DOS:  cpu time    0.0049: real time    0.0049
    --------------------------------------------
      LOOP:  cpu time   50.8333: real time   50.8844

 eigenvalue-minimisations  :  4104
 total energy-change (2. order) :-0.2696441E+03  (-0.2639529E+03)
 number of electron     393.0000000 magnetization      45.0000000
 augmentation part      393.0000000 magnetization      45.0000000

 Free energy of the ion-electron system (eV)
  ---------------------------------------------------
  alpha Z        PSCENC =       708.51951337
  Ewald energy   TEWEN  =    220142.03782711
  -Hartree energ DENC   =   -256893.26718362
  -exchange      EXHF   =         0.00000000
  -V(xc)+E(xc)   XCENC  =      1751.23507995
  PAW double counting   =     33676.09029089   -33353.10990192
  entropy T*S    EENTRO =        -0.00867435
  eigenvalues    EBANDS =     -8301.16674690
  atomic energy  EATOM  =     41802.93668617
  Solvation  Ediel_sol  =         0.00000000
  ---------------------------------------------------
  free energy    TOTEN  =      -466.73310931 eV

  energy without entropy =     -466.72443495  energy(sigma->0) =     -466.72877213


--------------------------------------------------------------------------------------------------------




--------------------------------------- Iteration      1(   4)  ---------------------------------------


     EDDAV:  cpu time   52.1654: real time   52.2356
       DOS:  cpu time    0.0049: real time    0.0049
    --------------------------------------------
      LOOP:  cpu time   52.1702: real time   52.2405

 eigenvalue-minimisations  :  4248
 total energy-change (2. order) :-0.6161376E+01  (-0.6121822E+01)
 number of electron     393.0000000 magnetization      45.0000000
 augmentation part      393.0000000 magnetization      45.0000000

 Free energy of the ion-electron system (eV)
  ---------------------------------------------------
  alpha Z        PSCENC =       708.51951337
  Ewald energy   TEWEN  =    220142.03782711
  -Hartree energ DENC   =   -256893.26718362
  -exchange      EXHF   =         0.00000000
  -V(xc)+E(xc)   XCENC  =      1751.23507995
  PAW double counting   =     33676.09029089   -33353.10990192
  entropy T*S    EENTRO =        -0.00808395
  eigenvalues    EBANDS =     -8307.32871359
  atomic energy  EATOM  =     41802.93668617
  Solvation  Ediel_sol  =         0.00000000
  ---------------------------------------------------
  free energy    TOTEN  =      -472.89448560 eV

  energy without entropy =     -472.88640165  energy(sigma->0) =     -472.89044362


--------------------------------------------------------------------------------------------------------




--------------------------------------- Iteration      1(   5)  ---------------------------------------


     EDDAV:  cpu time   50.0867: real time   50.1410
       DOS:  cpu time    0.0049: real time    0.0049
    CHARGE:  cpu time    0.6225: real time    0.6230
    MIXING:  cpu time    0.0045: real time    0.0047
    --------------------------------------------
      LOOP:  cpu time   50.7186: real time   50.7735

 eigenvalue-minimisations  :  4032
 total energy-change (2. order) :-0.9959036E-01  (-0.9956857E-01)
 number of electron     393.0000090 magnetization      40.9255148
 augmentation part       54.3165347 magnetization      39.5751593

 Broyden mixing:
  rms(total) = 0.15058E+02    rms(broyden)= 0.15058E+02
  rms(prec ) = 0.15210E+02
  weight for this iteration     100.00

 Free energy of the ion-electron system (eV)
  ---------------------------------------------------
  alpha Z        PSCENC =       708.51951337
  Ewald energy   TEWEN  =    220142.03782711
  -Hartree energ DENC   =   -256893.26718362
  -exchange      EXHF   =         0.00000000
  -V(xc)+E(xc)   XCENC  =      1751.23507995
  PAW double counting   =     33676.09029089   -33353.10990192
  entropy T*S    EENTRO =        -0.00806713
  eigenvalues    EBANDS =     -8307.42832077
  atomic energy  EATOM  =     41802.93668617
  Solvation  Ediel_sol  =         0.00000000
  ---------------------------------------------------
  free energy    TOTEN  =      -472.99407596 eV

  energy without entropy =     -472.98600883  energy(sigma->0) =     -472.99004240


--------------------------------------------------------------------------------------------------------




--------------------------------------- Iteration      1(   6)  ---------------------------------------


    POTLOK:  cpu time    0.1519: real time    0.1603
    SETDIJ:  cpu time    0.0116: real time    0.0116
     EDDAV:  cpu time   47.6276: real time   47.6774
       DOS:  cpu time    0.0050: real time    0.0050
    CHARGE:  cpu time    0.6189: real time    0.6195
    MIXING:  cpu time    0.0045: real time    0.0045
    --------------------------------------------
      LOOP:  cpu time   48.4195: real time   48.4783

 eigenvalue-minimisations  :  3780
 total energy-change (2. order) : 0.1190693E+03  (-0.4024062E+02)
 number of electron     393.0000044 magnetization      37.6653178
 augmentation part       60.7131975 magnetization      32.3823678

 Broyden mixing:
  rms(total) = 0.39499E+01    rms(broyden)= 0.39492E+01
  rms(prec ) = 0.41433E+01
  weight for this iteration     100.00

 eigenvalues of (default mixing * dielectric matrix)
  average eigenvalue GAMMA=   0.9485
  0.9485

 Free energy of the ion-electron system (eV)
  ---------------------------------------------------
  alpha Z        PSCENC =       708.51951337
  Ewald energy   TEWEN  =    220142.03782711
  -Hartree energ DENC   =   -256470.90586874
  -exchange      EXHF   =         0.00000000
  -V(xc)+E(xc)   XCENC  =      1787.64335399
  PAW double counting   =     39592.65150238   -39344.67503339
  entropy T*S    EENTRO =        -0.00182095
  eigenvalues    EBANDS =     -8572.13093971
  atomic energy  EATOM  =     41802.93668617
  Solvation  Ediel_sol  =         0.00000000
  ---------------------------------------------------
  free energy    TOTEN  =      -353.92477978 eV

  energy without entropy =     -353.92295883  energy(sigma->0) =     -353.92386930


--------------------------------------------------------------------------------------------------------




--------------------------------------- Iteration      1(   7)  ---------------------------------------


    POTLOK:  cpu time    0.1481: real time    0.1498
    SETDIJ:  cpu time    0.0115: real time    0.0115
     EDDAV:  cpu time   49.0129: real time   49.0731
       DOS:  cpu time    0.0027: real time    0.0027
    CHARGE:  cpu time    0.6210: real time    0.6216
    MIXING:  cpu time    0.0048: real time    0.0048
    --------------------------------------------
      LOOP:  cpu time   49.8010: real time   49.8635

 eigenvalue-minimisations  :  3924
 total energy-change (2. order) :-0.1149896E+02  (-0.1392097E+02)
 number of electron     393.0000078 magnetization      33.7428662
 augmentation part       57.7373201 magnetization      30.0834753

 Broyden mixing:
  rms(total) = 0.42843E+01    rms(broyden)= 0.42841E+01
  rms(prec ) = 0.43791E+01
  weight for this iteration     100.00

 eigenvalues of (default mixing * dielectric matrix)
  average eigenvalue GAMMA=   1.0081
  1.4485  0.5677

 Free energy of the ion-electron system (eV)
  ---------------------------------------------------
  alpha Z        PSCENC =       708.51951337
  Ewald energy   TEWEN  =    220142.03782711
  -Hartree energ DENC   =   -256877.48862400
  -exchange      EXHF   =         0.00000000
  -V(xc)+E(xc)   XCENC  =      1776.51288059
  PAW double counting   =     42322.30671418   -42051.07838905
  entropy T*S    EENTRO =        -0.00548410
  eigenvalues    EBANDS =     -8189.16486356
  atomic energy  EATOM  =     41802.93668617
  Solvation  Ediel_sol  =         0.00000000
  ---------------------------------------------------
  free energy    TOTEN  =      -365.42373930 eV

  energy without entropy =     -365.41825520  energy(sigma->0) =     -365.42099725


--------------------------------------------------------------------------------------------------------




--------------------------------------- Iteration      1(   8)  ---------------------------------------


    POTLOK:  cpu time    0.1481: real time    0.1584
    SETDIJ:  cpu time    0.0114: real time    0.0114
     EDDAV:  cpu time   47.8061: real time   47.8692
       DOS:  cpu time    0.0027: real time    0.0027
    CHARGE:  cpu time    0.6191: real time    0.6198
    MIXING:  cpu time    0.0051: real time    0.0051
    --------------------------------------------
      LOOP:  cpu time   48.5925: real time   48.6665

 eigenvalue-minimisations  :  3816
 total energy-change (2. order) : 0.1056177E+02  (-0.1586535E+01)
 number of electron     393.0000067 magnetization      30.0452209
 augmentation part       58.0671561 magnetization      27.1270053

 Broyden mixing:
  rms(total) = 0.18592E+01    rms(broyden)= 0.18592E+01
  rms(prec ) = 0.18766E+01
  weight for this iteration     100.00

 eigenvalues of (default mixing * dielectric matrix)
  average eigenvalue GAMMA=   1.0699
  1.8471  0.6812  0.6812

 Free energy of the ion-electron system (eV)
  ---------------------------------------------------
  alpha Z        PSCENC =       708.51951337
  Ewald energy   TEWEN  =    220142.03782711
  -Hartree energ DENC   =   -256777.88654015
  -exchange      EXHF   =         0.00000000
  -V(xc)+E(xc)   XCENC  =      1779.20076652
  PAW double counting   =     44822.44327893   -44570.17769799
  entropy T*S    EENTRO =        -0.00684127
  eigenvalues    EBANDS =     -8261.92896173
  atomic energy  EATOM  =     41802.93668617
  Solvation  Ediel_sol  =         0.00000000
  ---------------------------------------------------
  free energy    TOTEN  =      -354.86196905 eV

  energy without entropy =     -354.85512778  energy(sigma->0) =     -354.85854841


--------------------------------------------------------------------------------------------------------




--------------------------------------- Iteration      1(   9)  ---------------------------------------


    POTLOK:  cpu time    0.1485: real time    0.1488
    SETDIJ:  cpu time    0.0114: real time    0.0114
     EDDAV:  cpu time   48.5239: real time   48.5788
       DOS:  cpu time    0.0027: real time    0.0027
    CHARGE:  cpu time    0.6191: real time    0.6195
    MIXING:  cpu time    0.0051: real time    0.0051
    --------------------------------------------
      LOOP:  cpu time   49.3109: real time   49.3664

 eigenvalue-minimisations  :  3888
 total energy-change (2. order) :-0.5856594E+01  (-0.8695350E+00)
 number of electron     393.0000065 magnetization      26.1694969
 augmentation part       58.5410945 magnetization      22.0147301

 Broyden mixing:
  rms(total) = 0.12085E+01    rms(broyden)= 0.12085E+01
  rms(prec ) = 0.12351E+01
  weight for this iteration     100.00

 eigenvalues of (default mixing * dielectric matrix)
  average eigenvalue GAMMA=   1.1380
  2.4469  1.0039  0.5505  0.5505

 Free energy of the ion-electron system (eV)
  ---------------------------------------------------
  alpha Z        PSCENC =       708.51951337
  Ewald energy   TEWEN  =    220142.03782711
  -Hartree energ DENC   =   -256817.12027011
  -exchange      EXHF   =         0.00000000
  -V(xc)+E(xc)   XCENC  =      1774.54816809
  PAW double counting   =     46147.75644746   -45901.46054494
  entropy T*S    EENTRO =        -0.00582751
  eigenvalues    EBANDS =     -8217.93056266
  atomic energy  EATOM  =     41802.93668617
  Solvation  Ediel_sol  =         0.00000000
  ---------------------------------------------------
  free energy    TOTEN  =      -360.71856302 eV

  energy without entropy =     -360.71273551  energy(sigma->0) =     -360.71564926


--------------------------------------------------------------------------------------------------------




--------------------------------------- Iteration      1(  10)  ---------------------------------------


    POTLOK:  cpu time    0.1475: real time    0.1575
    SETDIJ:  cpu time    0.0113: real time    0.0113
     EDDAV:  cpu time   48.9403: real time   49.0005
       DOS:  cpu time    0.0027: real time    0.0026
    CHARGE:  cpu time    0.6300: real time    0.6306
    MIXING:  cpu time    0.0056: real time    0.0056
    --------------------------------------------
      LOOP:  cpu time   49.7374: real time   49.8081

 eigenvalue-minimisations  :  3924
 total energy-change (2. order) :-0.1058877E+02  (-0.6040361E+00)
 number of electron     393.0000065 magnetization      22.5986868
 augmentation part       58.5212397 magnetization      20.2728763

 Broyden mixing:
  rms(total) = 0.11056E+01    rms(broyden)= 0.11056E+01
  rms(prec ) = 0.11359E+01
  weight for this iteration     100.00

 eigenvalues of (default mixing * dielectric matrix)
  average eigenvalue GAMMA=   1.0891
  2.5699  1.1578  0.6593  0.6593  0.3992

 Free energy of the ion-electron system (eV)
  ---------------------------------------------------
  alpha Z        PSCENC =       708.51951337
  Ewald energy   TEWEN  =    220142.03782711
  -Hartree energ DENC   =   -256856.49913366
  -exchange      EXHF   =         0.00000000
  -V(xc)+E(xc)   XCENC  =      1766.86338078
  PAW double counting   =     46965.96250802   -46723.32387728
  entropy T*S    EENTRO =        -0.00823010
  eigenvalues    EBANDS =     -8177.79600734
  atomic energy  EATOM  =     41802.93668617
  Solvation  Ediel_sol  =         0.00000000
  ---------------------------------------------------
  free energy    TOTEN  =      -371.30733293 eV

  energy without entropy =     -371.29910283  energy(sigma->0) =     -371.30321788


--------------------------------------------------------------------------------------------------------




--------------------------------------- Iteration      1(  11)  ---------------------------------------


    POTLOK:  cpu time    0.1496: real time    0.1517
    SETDIJ:  cpu time    0.0115: real time    0.0115
     EDDAV:  cpu time   48.6800: real time   48.7442
       DOS:  cpu time    0.0032: real time    0.0032
    CHARGE:  cpu time    0.6225: real time    0.6229
    MIXING:  cpu time    0.0057: real time    0.0057
    --------------------------------------------
      LOOP:  cpu time   49.4726: real time   49.5393

 eigenvalue-minimisations  :  3888
 total energy-change (2. order) :-0.5549767E+01  (-0.2662634E+00)
 number of electron     393.0000066 magnetization      16.0985574
 augmentation part       58.4841088 magnetization      13.8965329

 Broyden mixing:
  rms(total) = 0.88763E+00    rms(broyden)= 0.88762E+00
  rms(prec ) = 0.89026E+00
  weight for this iteration     100.00

 eigenvalues of (default mixing * dielectric matrix)
  average eigenvalue GAMMA=   1.1820
  2.6482  1.8887  0.8337  0.6465  0.6465  0.4281

 Free energy of the ion-electron system (eV)
  ---------------------------------------------------
  alpha Z        PSCENC =       708.51951337
  Ewald energy   TEWEN  =    220142.03782711
  -Hartree energ DENC   =   -256883.52804816
  -exchange      EXHF   =         0.00000000
  -V(xc)+E(xc)   XCENC  =      1762.81065738
  PAW double counting   =     46961.92357476   -46718.78928376
  entropy T*S    EENTRO =        -0.00829334
  eigenvalues    EBANDS =     -8152.75973317
  atomic energy  EATOM  =     41802.93668617
  Solvation  Ediel_sol  =         0.00000000
  ---------------------------------------------------
  free energy    TOTEN  =      -376.85709964 eV

  energy without entropy =     -376.84880630  energy(sigma->0) =     -376.85295297


--------------------------------------------------------------------------------------------------------




--------------------------------------- Iteration      1(  12)  ---------------------------------------


    POTLOK:  cpu time    0.1496: real time    0.1592
    SETDIJ:  cpu time    0.0113: real time    0.0113
     EDDAV:  cpu time   46.0693: real time   46.1324
       DOS:  cpu time    0.0025: real time    0.0025
    CHARGE:  cpu time    0.6237: real time    0.6240
    MIXING:  cpu time    0.0057: real time    0.0057
    --------------------------------------------
      LOOP:  cpu time   46.8621: real time   46.9352

 eigenvalue-minimisations  :  3636
 total energy-change (2. order) :-0.1164519E+02  (-0.5782124E+00)
 number of electron     393.0000065 magnetization       7.4091434
 augmentation part       58.3620491 magnetization       6.0221984

 Broyden mixing:
  rms(total) = 0.66073E+00    rms(broyden)= 0.66072E+00
  rms(prec ) = 0.67929E+00
  weight for this iteration     100.00

 eigenvalues of (default mixing * dielectric matrix)
  average eigenvalue GAMMA=   1.4250
  4.3300  2.4327  0.9249  0.6670  0.6670  0.5492  0.4042

 Free energy of the ion-electron system (eV)
  ---------------------------------------------------
  alpha Z        PSCENC =       708.51951337
  Ewald energy   TEWEN  =    220142.03782711
  -Hartree energ DENC   =   -256901.76794143
  -exchange      EXHF   =         0.00000000
  -V(xc)+E(xc)   XCENC  =      1755.30675136
  PAW double counting   =     46408.89459193   -46164.27375980
  entropy T*S    EENTRO =        -0.00371515
  eigenvalues    EBANDS =     -8140.15224610
  atomic energy  EATOM  =     41802.93668617
  Solvation  Ediel_sol  =         0.00000000
  ---------------------------------------------------
  free energy    TOTEN  =      -388.50229255 eV

  energy without entropy =     -388.49857740  energy(sigma->0) =     -388.50043497


--------------------------------------------------------------------------------------------------------




--------------------------------------- Iteration      1(  13)  ---------------------------------------


    POTLOK:  cpu time    0.1497: real time    0.1514
    SETDIJ:  cpu time    0.0113: real time    0.0114
     EDDAV:  cpu time   49.6814: real time   49.7470
       DOS:  cpu time    0.0024: real time    0.0024
    CHARGE:  cpu time    0.6259: real time    0.6270
    MIXING:  cpu time    0.0063: real time    0.0063
    --------------------------------------------
      LOOP:  cpu time   50.4771: real time   50.5456

 eigenvalue-minimisations  :  3996
 total energy-change (2. order) :-0.1072203E+02  (-0.8475852E+00)
 number of electron     393.0000066 magnetization       2.9689945
 augmentation part       58.4046458 magnetization       2.3438547

 Broyden mixing:
  rms(total) = 0.39152E+00    rms(broyden)= 0.39151E+00
  rms(prec ) = 0.40807E+00
  weight for this iteration     100.00

 eigenvalues of (default mixing * dielectric matrix)
  average eigenvalue GAMMA=   1.7624
  7.6544  2.4316  1.0165  0.7471  0.7471  0.6076  0.5062  0.3888

 Free energy of the ion-electron system (eV)
  ---------------------------------------------------
  alpha Z        PSCENC =       708.51951337
  Ewald energy   TEWEN  =    220142.03782711
  -Hartree energ DENC   =   -256910.58665775
  -exchange      EXHF   =         0.00000000
  -V(xc)+E(xc)   XCENC  =      1747.87229469
  PAW double counting   =     45877.64329928   -45632.68062790
  entropy T*S    EENTRO =        -0.00434523
  eigenvalues    EBANDS =     -8134.96231412
  atomic energy  EATOM  =     41802.93668617
  Solvation  Ediel_sol  =         0.00000000
  ---------------------------------------------------
  free energy    TOTEN  =      -399.22432438 eV

  energy without entropy =     -399.21997915  energy(sigma->0) =     -399.22215176


--------------------------------------------------------------------------------------------------------




--------------------------------------- Iteration      1(  14)  ---------------------------------------


    POTLOK:  cpu time    0.1494: real time    0.1587
    SETDIJ:  cpu time    0.0114: real time    0.0114
     EDDAV:  cpu time   48.6130: real time   48.6732
       DOS:  cpu time    0.0024: real time    0.0024
    CHARGE:  cpu time    0.6205: real time    0.6209
    MIXING:  cpu time    0.0064: real time    0.0064
    --------------------------------------------
      LOOP:  cpu time   49.4030: real time   49.4730

 eigenvalue-minimisations  :  3888
 total energy-change (2. order) :-0.3155553E+01  (-0.2424337E+00)
 number of electron     393.0000065 magnetization       1.5514618
 augmentation part       58.4001196 magnetization       1.4029229

 Broyden mixing:
  rms(total) = 0.21458E+00    rms(broyden)= 0.21456E+00
  rms(prec ) = 0.22996E+00
  weight for this iteration     100.00

 eigenvalues of (default mixing * dielectric matrix)
  average eigenvalue GAMMA=   1.8845
  9.5478  2.3968  1.3102  0.7916  0.7916  0.6370  0.6370  0.4587  0.3901

 Free energy of the ion-electron system (eV)
  ---------------------------------------------------
  alpha Z        PSCENC =       708.51951337
  Ewald energy   TEWEN  =    220142.03782711
  -Hartree energ DENC   =   -256894.88577495
  -exchange      EXHF   =         0.00000000
  -V(xc)+E(xc)   XCENC  =      1745.61578300
  PAW double counting   =     45849.57053562   -45605.33883604
  entropy T*S    EENTRO =        -0.00301841
  eigenvalues    EBANDS =     -8150.83259292
  atomic energy  EATOM  =     41802.93668617
  Solvation  Ediel_sol  =         0.00000000
  ---------------------------------------------------
  free energy    TOTEN  =      -402.37987704 eV

  energy without entropy =     -402.37685863  energy(sigma->0) =     -402.37836784


--------------------------------------------------------------------------------------------------------




--------------------------------------- Iteration      1(  15)  ---------------------------------------


    POTLOK:  cpu time    0.1493: real time    0.1500
    SETDIJ:  cpu time    0.0114: real time    0.0114
     EDDAV:  cpu time   50.0261: real time   50.0829
       DOS:  cpu time    0.0022: real time    0.0024
    CHARGE:  cpu time    0.6232: real time    0.6234
    MIXING:  cpu time    0.0066: real time    0.0066
    --------------------------------------------
      LOOP:  cpu time   50.8187: real time   50.8767

 eigenvalue-minimisations  :  4032
 total energy-change (2. order) :-0.5561939E+00  (-0.4592498E-01)
 number of electron     393.0000065 magnetization       0.9331976
 augmentation part       58.3874883 magnetization       0.8765698

 Broyden mixing:
  rms(total) = 0.10982E+00    rms(broyden)= 0.10981E+00
  rms(prec ) = 0.12028E+00
  weight for this iteration     100.00

 eigenvalues of (default mixing * dielectric matrix)
  average eigenvalue GAMMA=   1.9160
 10.5349  2.2852  1.8447  0.9724  0.8044  0.6542  0.6542  0.5718  0.4498  0.3889

 Free energy of the ion-electron system (eV)
  ---------------------------------------------------
  alpha Z        PSCENC =       708.51951337
  Ewald energy   TEWEN  =    220142.03782711
  -Hartree energ DENC   =   -256867.31687729
  -exchange      EXHF   =         0.00000000
  -V(xc)+E(xc)   XCENC  =      1745.10493201
  PAW double counting   =     45968.35746728   -45724.49046581
  entropy T*S    EENTRO =        -0.00324172
  eigenvalues    EBANDS =     -8178.08191204
  atomic energy  EATOM  =     41802.93668617
  Solvation  Ediel_sol  =         0.00000000
  ---------------------------------------------------
  free energy    TOTEN  =      -402.93607092 eV

  energy without entropy =     -402.93282920  energy(sigma->0) =     -402.93445006


--------------------------------------------------------------------------------------------------------




--------------------------------------- Iteration      1(  16)  ---------------------------------------


    POTLOK:  cpu time    0.1492: real time    0.1590
    SETDIJ:  cpu time    0.0114: real time    0.0114
     EDDAV:  cpu time   48.3299: real time   48.3769
       DOS:  cpu time    0.0026: real time    0.0026
    CHARGE:  cpu time    0.6202: real time    0.6205
    MIXING:  cpu time    0.0070: real time    0.0070
    --------------------------------------------
      LOOP:  cpu time   49.1204: real time   49.1774

 eigenvalue-minimisations  :  3852
 total energy-change (2. order) :-0.7105517E+00  (-0.1559423E-01)
 number of electron     393.0000065 magnetization       0.6685196
 augmentation part       58.3595904 magnetization       0.6547596

 Broyden mixing:
  rms(total) = 0.63722E-01    rms(broyden)= 0.63719E-01
  rms(prec ) = 0.73361E-01
  weight for this iteration     100.00

 eigenvalues of (default mixing * dielectric matrix)
  average eigenvalue GAMMA=   1.9067
 10.9804  2.3036  2.3036  1.1280  0.8805  0.7079  0.7079  0.5696  0.5696  0.4363
  0.3865

 Free energy of the ion-electron system (eV)
  ---------------------------------------------------
  alpha Z        PSCENC =       708.51951337
  Ewald energy   TEWEN  =    220142.03782711
  -Hartree energ DENC   =   -256829.11831276
  -exchange      EXHF   =         0.00000000
  -V(xc)+E(xc)   XCENC  =      1744.20317507
  PAW double counting   =     46069.29404512   -45825.36869788
  entropy T*S    EENTRO =        -0.00306845
  eigenvalues    EBANDS =     -8216.14779032
  atomic energy  EATOM  =     41802.93668617
  Solvation  Ediel_sol  =         0.00000000
  ---------------------------------------------------
  free energy    TOTEN  =      -403.64662258 eV

  energy without entropy =     -403.64355413  energy(sigma->0) =     -403.64508835


--------------------------------------------------------------------------------------------------------




--------------------------------------- Iteration      1(  17)  ---------------------------------------


    POTLOK:  cpu time    0.1497: real time    0.1514
    SETDIJ:  cpu time    0.0113: real time    0.0113
     EDDAV:  cpu time   50.0465: real time   50.0944
       DOS:  cpu time    0.0025: real time    0.0025
    CHARGE:  cpu time    0.6230: real time    0.6233
    MIXING:  cpu time    0.0072: real time    0.0072
    --------------------------------------------
      LOOP:  cpu time   50.8402: real time   50.8901

 eigenvalue-minimisations  :  4032
 total energy-change (2. order) :-0.8821030E+00  (-0.6557776E-02)
 number of electron     393.0000065 magnetization       0.5013404
 augmentation part       58.3636138 magnetization       0.4961061

 Broyden mixing:
  rms(total) = 0.43814E-01    rms(broyden)= 0.43811E-01
  rms(prec ) = 0.52844E-01
  weight for this iteration     100.00

 eigenvalues of (default mixing * dielectric matrix)
  average eigenvalue GAMMA=   1.8602
 11.1650  2.4721  2.4721  1.0932  1.0932  0.7306  0.7306  0.6178  0.6178  0.5142
  0.3869  0.4293

 Free energy of the ion-electron system (eV)
  ---------------------------------------------------
  alpha Z        PSCENC =       708.51951337
  Ewald energy   TEWEN  =    220142.03782711
  -Hartree energ DENC   =   -256800.24102817
  -exchange      EXHF   =         0.00000000
  -V(xc)+E(xc)   XCENC  =      1743.14171764
  PAW double counting   =     46084.17256024   -45840.14806745
  entropy T*S    EENTRO =        -0.00319923
  eigenvalues    EBANDS =     -8244.94473529
  atomic energy  EATOM  =     41802.93668617
  Solvation  Ediel_sol  =         0.00000000
  ---------------------------------------------------
  free energy    TOTEN  =      -404.52872561 eV

  energy without entropy =     -404.52552637  energy(sigma->0) =     -404.52712599


--------------------------------------------------------------------------------------------------------




--------------------------------------- Iteration      1(  18)  ---------------------------------------


    POTLOK:  cpu time    0.1493: real time    0.1594
    SETDIJ:  cpu time    0.0113: real time    0.0114
     EDDAV:  cpu time   47.4425: real time   47.4926
       DOS:  cpu time    0.0026: real time    0.0025
    CHARGE:  cpu time    0.6216: real time    0.6220
    MIXING:  cpu time    0.0075: real time    0.0075
    --------------------------------------------
      LOOP:  cpu time   48.2349: real time   48.2955

 eigenvalue-minimisations  :  3780
 total energy-change (2. order) :-0.5448504E+00  (-0.2449467E-02)
 number of electron     393.0000065 magnetization       0.3617673
 augmentation part       58.3717993 magnetization       0.3607815

 Broyden mixing:
  rms(total) = 0.24379E-01    rms(broyden)= 0.24377E-01
  rms(prec ) = 0.31511E-01
  weight for this iteration     100.00

 eigenvalues of (default mixing * dielectric matrix)
  average eigenvalue GAMMA=   1.8188
 11.2611  2.6726  2.4161  1.3680  1.1930  0.7657  0.7657  0.7224  0.5857  0.5857
  0.4916  0.3867  0.4297

 Free energy of the ion-electron system (eV)
  ---------------------------------------------------
  alpha Z        PSCENC =       708.51951337
  Ewald energy   TEWEN  =    220142.03782711
  -Hartree energ DENC   =   -256774.87476293
  -exchange      EXHF   =         0.00000000
  -V(xc)+E(xc)   XCENC  =      1742.47321426
  PAW double counting   =     46097.01191050   -45853.02795087
  entropy T*S    EENTRO =        -0.00324786
  eigenvalues    EBANDS =     -8270.14676575
  atomic energy  EATOM  =     41802.93668617
  Solvation  Ediel_sol  =         0.00000000
  ---------------------------------------------------
  free energy    TOTEN  =      -405.07357598 eV

  energy without entropy =     -405.07032813  energy(sigma->0) =     -405.07195206


--------------------------------------------------------------------------------------------------------




--------------------------------------- Iteration      1(  19)  ---------------------------------------


    POTLOK:  cpu time    0.1490: real time    0.1522
    SETDIJ:  cpu time    0.0115: real time    0.0115
     EDDAV:  cpu time   50.0936: real time   50.1545
       DOS:  cpu time    0.0025: real time    0.0025
    CHARGE:  cpu time    0.6215: real time    0.6219
    MIXING:  cpu time    0.0081: real time    0.0080
    --------------------------------------------
      LOOP:  cpu time   50.8861: real time   50.9505

 eigenvalue-minimisations  :  4032
 total energy-change (2. order) :-0.2442988E+00  (-0.9050189E-03)
 number of electron     393.0000065 magnetization       0.2836273
 augmentation part       58.3734331 magnetization       0.2867798

 Broyden mixing:
  rms(total) = 0.18184E-01    rms(broyden)= 0.18183E-01
  rms(prec ) = 0.23131E-01
  weight for this iteration     100.00

 eigenvalues of (default mixing * dielectric matrix)
  average eigenvalue GAMMA=   1.7909
 11.3115  2.9366  2.4456  1.7088  1.0209  1.0209  0.7593  0.7593  0.6415  0.6415
  0.5498  0.3868  0.4632  0.4269

 Free energy of the ion-electron system (eV)
  ---------------------------------------------------
  alpha Z        PSCENC =       708.51951337
  Ewald energy   TEWEN  =    220142.03782711
  -Hartree energ DENC   =   -256751.86613108
  -exchange      EXHF   =         0.00000000
  -V(xc)+E(xc)   XCENC  =      1742.12228179
  PAW double counting   =     46105.25044334   -45861.23873638
  entropy T*S    EENTRO =        -0.00327001
  eigenvalues    EBANDS =     -8293.07648913
  atomic energy  EATOM  =     41802.93668617
  Solvation  Ediel_sol  =         0.00000000
  ---------------------------------------------------
  free energy    TOTEN  =      -405.31787483 eV

  energy without entropy =     -405.31460482  energy(sigma->0) =     -405.31623982


--------------------------------------------------------------------------------------------------------




--------------------------------------- Iteration      1(  20)  ---------------------------------------


    POTLOK:  cpu time    0.1486: real time    0.1597
    SETDIJ:  cpu time    0.0113: real time    0.0113
     EDDAV:  cpu time   47.8380: real time   47.8977
       DOS:  cpu time    0.0025: real time    0.0025
    CHARGE:  cpu time    0.6222: real time    0.6226
    MIXING:  cpu time    0.0082: real time    0.0082
    --------------------------------------------
      LOOP:  cpu time   48.6308: real time   48.7020

 eigenvalue-minimisations  :  3816
 total energy-change (2. order) :-0.9425913E-01  (-0.4204204E-03)
 number of electron     393.0000065 magnetization       0.2284713
 augmentation part       58.3723588 magnetization       0.2286843

 Broyden mixing:
  rms(total) = 0.12616E-01    rms(broyden)= 0.12615E-01
  rms(prec ) = 0.16328E-01
  weight for this iteration     100.00

 eigenvalues of (default mixing * dielectric matrix)
  average eigenvalue GAMMA=   1.7901
 11.3206  3.3125  2.4693  1.9258  1.2086  1.2086  0.8498  0.7433  0.7433  0.6143
  0.6143  0.5680  0.3869  0.4613  0.4247

 Free energy of the ion-electron system (eV)
  ---------------------------------------------------
  alpha Z        PSCENC =       708.51951337
  Ewald energy   TEWEN  =    220142.03782711
  -Hartree energ DENC   =   -256732.32902879
  -exchange      EXHF   =         0.00000000
  -V(xc)+E(xc)   XCENC  =      1741.92613387
  PAW double counting   =     46117.88743018   -45873.81407178
  entropy T*S    EENTRO =        -0.00325153
  eigenvalues    EBANDS =     -8312.57337257
  atomic energy  EATOM  =     41802.93668617
  Solvation  Ediel_sol  =         0.00000000
  ---------------------------------------------------
  free energy    TOTEN  =      -405.41213396 eV

  energy without entropy =     -405.40888244  energy(sigma->0) =     -405.41050820


[...]
   41        0.000  -0.000   0.000   0.000
   42        0.000  -0.000   0.000   0.000
   43        0.000  -0.000   0.000   0.000
   44       -0.000  -0.000  -0.000  -0.000
   45       -0.000  -0.000   0.000   0.000
--------------------------------------------------
tot         -0.000  -0.000   0.000  -0.000
 
    CHARGE:  cpu time    0.6230: real time    0.6236
    FORLOC:  cpu time    0.0191: real time    0.0191
    FORNL :  cpu time   10.3717: real time   10.3789
    STRESS:  cpu time   63.5008: real time   63.5569
    FORCOR:  cpu time    0.1459: real time    0.1469
    FORHAR:  cpu time    0.0325: real time    0.0325
    MIXING:  cpu time    0.0158: real time    0.0182
    OFIELD:  cpu time    0.0001: real time    0.0001

 ---------------------------------------------------------------------------------------------

         DFTD3 V3.0 Rev 1        
 IVDW         = 12
 DF pbe       
 parameters
 VDW_S6       =    1.0000
 VDW_S8       =    0.7875
 VDW_A1       =    0.4289
 VDW_A2       =    4.4407
 k1-k3        =   16.0000    1.3333   -4.0000
 VDW_RADIUS   =   50.2022 A
 VDW_CNRADIUS =   21.1671 A
 Edisp (eV)  -11.71057

 E6    (eV) :    -6.6444
 E8    (eV) :    -5.0661
 % E8        : 43.26
    FORVDW:  cpu time    0.1314: real time    0.1422

  FORCE on cell =-STRESS in cart. coord.  units (eV):
  Direction    XX          YY          ZZ          XY          YZ          ZX
  --------------------------------------------------------------------------------------
  Alpha Z   708.51951   708.51951   708.51951
  Ewald  245087.35772245087.34933************    -0.00133     0.00182    -0.00182
  Hartree252354.78680252354.78789************    -0.00004     0.00066     0.00011
  E(xc)   -1874.43789 -1874.43783 -1878.63250    -0.00003    -0.00000    -0.00000
  Local  ************************511895.24239    -0.00052    -0.00202     0.00025
  n-local  -850.87812  -847.20007  -876.08537    -3.18466     0.43063     0.73646
  augment   780.94375   780.94602   791.45358     0.00086    -0.00001     0.00006
  Kinetic  7320.14190  7327.38410  7426.16768    -6.27430     0.24651     0.42559
  Fock        0.00000     0.00000     0.00000     0.00000     0.00000     0.00000
  vdW       -12.43048   -12.43048    -5.56810    -0.00000    -0.00000     0.00000
  -------------------------------------------------------------------------------------
  Total       0.03642     0.03642    -1.31167     0.00000     0.00000     0.00000
  in kB       0.03607     0.03607    -1.29894     0.00000     0.00000     0.00000
  external pressure =       -0.41 kB  Pullay stress =        0.00 kB


 VOLUME and BASIS-vectors are now :
 -----------------------------------------------------------------------------
  energy-cutoff  :      600.00
  volume of cell :     1617.87
      direct lattice vectors                 reciprocal lattice vectors
     8.644442000  0.000000000  0.000000000     0.115681267  0.066788551  0.000000000
    -4.322221000  7.486313000  0.000000000     0.000000000  0.133577103  0.000000000
     0.000000000  0.000000000 25.000000000     0.000000000  0.000000000  0.040000000

  length of vectors
     8.644442000  8.644447739 25.000000000     0.133577191  0.133577103  0.040000000


 FORCES acting on ions
    electron-ion (+dipol)            ewald-force                    non-local-force                 convergence-correction
 -----------------------------------------------------------------------------------------------
   0.548E+01 -.317E+01 0.244E+02   -.555E+01 0.321E+01 -.253E+02   0.673E-01 -.389E-01 0.871E+00   -.561E-05 0.324E-05 0.328E-04
   -.146E+02 -.844E+01 -.124E+02   0.145E+02 0.838E+01 0.123E+02   0.112E+00 0.647E-01 0.127E+00   -.137E-04 -.792E-05 0.184E-04
   -.118E-02 0.633E+01 0.244E+02   0.559E-03 -.642E+01 -.253E+02   -.173E-17 0.777E-01 0.871E+00   -.288E-09 -.648E-05 0.328E-04
   -.549E+01 -.317E+01 0.244E+02   0.556E+01 0.321E+01 -.253E+02   -.673E-01 -.389E-01 0.871E+00   0.561E-05 0.324E-05 0.328E-04
   -.170E-02 -.896E+02 -.421E+02   -.372E-03 0.918E+02 0.428E+02   0.278E-16 -.221E+01 -.646E+00   -.244E-08 0.104E-04 0.196E-04
   -.776E+02 0.448E+02 -.421E+02   0.795E+02 -.459E+02 0.428E+02   -.192E+01 0.111E+01 -.646E+00   0.903E-05 -.521E-05 0.196E-04
   -.208E-02 0.169E+02 -.124E+02   -.855E-04 -.168E+02 0.123E+02   -.173E-17 -.129E+00 0.127E+00   0.744E-08 0.158E-04 0.184E-04
   0.146E+02 -.844E+01 -.124E+02   -.145E+02 0.838E+01 0.123E+02   -.112E+00 0.647E-01 0.127E+00   0.137E-04 -.792E-05 0.183E-04
   0.776E+02 0.448E+02 -.421E+02   -.795E+02 -.459E+02 0.428E+02   0.192E+01 0.111E+01 -.646E+00   -.903E-05 -.521E-05 0.196E-04
   0.121E+02 -.699E+01 -.200E+04   -.115E+02 0.664E+01 0.203E+04   -.604E+00 0.349E+00 -.310E+02   0.243E-05 -.140E-05 0.711E-04
   -.157E+02 -.905E+01 -.198E+04   0.160E+02 0.924E+01 0.201E+04   -.313E+00 -.181E+00 -.292E+02   -.134E-04 -.777E-05 0.623E-04
   -.978E-02 0.140E+02 -.200E+04   -.186E-03 -.133E+02 0.203E+04   -.278E-16 -.698E+00 -.310E+02   0.553E-08 0.281E-05 0.711E-04
   -.121E+02 -.698E+01 -.200E+04   0.115E+02 0.664E+01 0.203E+04   0.604E+00 0.349E+00 -.310E+02   -.243E-05 -.141E-05 0.711E-04
   -.992E-02 -.615E+02 -.200E+04   0.103E-02 0.580E+02 0.203E+04   -.111E-15 0.356E+01 -.289E+02   -.170E-07 0.559E-05 0.817E-04
   -.533E+02 0.308E+02 -.200E+04   0.502E+02 -.290E+02 0.203E+04   0.308E+01 -.178E+01 -.289E+02   0.484E-05 -.280E-05 0.817E-04
   -.977E-02 0.181E+02 -.198E+04   -.546E-03 -.185E+02 0.201E+04   -.347E-17 0.361E+00 -.292E+02   0.497E-08 0.155E-04 0.623E-04
   0.157E+02 -.905E+01 -.198E+04   -.160E+02 0.924E+01 0.201E+04   0.313E+00 -.181E+00 -.292E+02   0.135E-04 -.777E-05 0.623E-04
   0.533E+02 0.308E+02 -.200E+04   -.502E+02 -.290E+02 0.203E+04   -.308E+01 -.178E+01 -.289E+02   -.485E-05 -.278E-05 0.817E-04
   0.241E+01 -.139E+01 0.203E+04   -.259E+01 0.150E+01 -.206E+04   0.164E+00 -.946E-01 0.297E+02   -.150E-04 0.865E-05 -.742E-04
   -.188E+02 -.108E+02 0.201E+04   0.202E+02 0.117E+02 -.204E+04   -.143E+01 -.823E+00 0.300E+02   -.118E-04 -.678E-05 -.357E-04
   -.505E-02 0.279E+01 0.203E+04   -.262E-03 -.299E+01 -.206E+04   0.000E+00 0.189E+00 0.297E+02   -.214E-07 -.173E-04 -.742E-04
   -.242E+01 -.139E+01 0.203E+04   0.259E+01 0.150E+01 -.206E+04   -.164E+00 -.946E-01 0.297E+02   0.150E-04 0.869E-05 -.742E-04
   -.145E-01 -.184E+02 0.198E+04   -.289E-02 0.200E+02 -.201E+04   0.000E+00 -.153E+01 0.297E+02   0.121E-07 0.171E-04 -.331E-04
   -.160E+02 0.921E+01 0.198E+04   0.173E+02 -.998E+01 -.201E+04   -.132E+01 0.763E+00 0.297E+02   0.148E-04 -.854E-05 -.331E-04
   -.515E-02 0.217E+02 0.201E+04   0.126E-02 -.233E+02 -.204E+04   -.555E-16 0.165E+01 0.300E+02   -.855E-08 0.136E-04 -.357E-04
   0.188E+02 -.108E+02 0.201E+04   -.202E+02 0.117E+02 -.204E+04   0.143E+01 -.823E+00 0.300E+02   0.117E-04 -.677E-05 -.357E-04
   0.160E+02 0.923E+01 0.198E+04   -.173E+02 -.998E+01 -.201E+04   0.132E+01 0.763E+00 0.297E+02   -.148E-04 -.855E-05 -.331E-04
   -.229E+01 -.170E+03 -.227E+04   0.315E+01 0.168E+03 0.227E+04   -.890E+00 0.135E+01 -.146E+01   -.684E-05 -.820E-05 0.107E-03
   -.148E+03 0.828E+02 -.227E+04   0.147E+03 -.814E+02 0.227E+04   0.726E+00 -.145E+01 -.146E+01   -.105E-04 -.181E-05 0.107E-03
   -.703E-02 0.434E-02 -.225E+04   0.661E-03 -.842E-03 0.225E+04   -.347E-17 0.000E+00 -.108E+01   -.207E-07 0.127E-07 0.130E-03
   0.227E+01 -.170E+03 -.227E+04   -.315E+01 0.168E+03 0.227E+04   0.890E+00 0.135E+01 -.146E+01   0.678E-05 -.820E-05 0.107E-03
   -.146E+03 0.868E+02 -.227E+04   0.144E+03 -.869E+02 0.227E+04   0.162E+01 0.945E-01 -.146E+01   -.369E-05 0.100E-04 0.107E-03
   -.136E-01 0.793E-02 -.238E+04   -.123E-02 0.773E-03 0.238E+04   -.217E-17 0.000E+00 -.902E+00   0.415E-07 -.243E-07 0.807E-04
   0.148E+03 0.828E+02 -.227E+04   -.147E+03 -.814E+02 0.227E+04   -.726E+00 -.145E+01 -.146E+01   0.105E-04 -.177E-05 0.107E-03
   0.146E+03 0.868E+02 -.227E+04   -.144E+03 -.869E+02 0.227E+04   -.162E+01 0.945E-01 -.146E+01   0.369E-05 0.100E-04 0.107E-03
   -.133E-01 -.345E+02 0.243E+04   -.338E-02 0.349E+02 -.243E+04   0.000E+00 -.497E+00 0.121E+01   0.186E-08 0.221E-04 0.552E-04
   -.681E+02 -.393E+02 0.215E+04   0.688E+02 0.397E+02 -.215E+04   -.712E+00 -.411E+00 0.468E+00   0.255E-05 0.144E-05 0.889E-04
   -.298E+02 0.172E+02 0.243E+04   0.303E+02 -.175E+02 -.243E+04   -.430E+00 0.248E+00 0.121E+01   0.191E-04 -.110E-04 0.552E-04
   0.563E+01 0.326E+01 0.238E+04   -.561E+01 -.324E+01 -.239E+04   -.227E-01 -.131E-01 0.179E+01   0.416E-04 0.241E-04 0.518E-04
   0.681E+02 -.393E+02 0.215E+04   -.688E+02 0.397E+02 -.215E+04   0.712E+00 -.411E+00 0.468E+00   -.249E-05 0.144E-05 0.889E-04
   -.659E-02 0.787E+02 0.215E+04   0.719E-03 -.795E+02 -.215E+04   0.139E-16 0.822E+00 0.468E+00   0.241E-07 -.294E-05 0.889E-04
   -.565E+01 0.326E+01 0.238E+04   0.561E+01 -.324E+01 -.239E+04   0.227E-01 -.131E-01 0.179E+01   -.416E-04 0.240E-04 0.519E-04
   -.136E-01 -.650E+01 0.238E+04   -.137E-02 0.648E+01 -.239E+04   0.173E-17 0.262E-01 0.179E+01   -.657E-07 -.481E-04 0.518E-04
   0.298E+02 0.172E+02 0.243E+04   -.303E+02 -.175E+02 -.243E+04   0.430E+00 0.248E+00 0.121E+01   -.191E-04 -.111E-04 0.552E-04
   -.669E-03 0.709E-03 -.267E+04   0.425E-02 -.326E-02 0.268E+04   0.130E-17 0.000E+00 -.223E+01   0.143E-08 -.857E-09 0.137E-03
 -----------------------------------------------------------------------------------------------
   -.317E+00 0.178E+00 0.409E+00   -.242E-12 -.340E-12 -.455E-12   -.105E-14 -.555E-16 -.417E+00   -.123E-06 0.702E-07 0.201E-02
 
 
 POSITION                                       TOTAL-FORCE (eV/Angst)
 -----------------------------------------------------------------------------------
      8.62950      0.00862     12.45485        -0.002985      0.001723     -0.007918
      7.18971      2.48736     12.48558         0.007739      0.004468     -0.011922
      5.76296      4.97363     12.45485         0.000000     -0.003447     -0.007918
      2.89642      0.00862     12.45485         0.002985      0.001723     -0.007918
      1.44074      2.40797     12.46233         0.000000     -0.007260     -0.012919
     -0.07574      5.03461     12.46233        -0.006287      0.003630     -0.012919
      5.76296      0.01616     12.48558         0.000000     -0.008936     -0.011922
      4.33622      2.48736     12.48558        -0.007739      0.004468     -0.011922
      2.95723      5.03461     12.46233         0.006287      0.003630     -0.012919
     -4.31753      7.48360     15.03805         0.008279     -0.004780      0.008074
     -1.42489      2.50458     15.05210         0.008488      0.004901      0.011556
     -2.88148      4.99631     15.03805         0.000000      0.009559      0.008074
     -1.44544      7.48360     15.03805        -0.008279     -0.004780      0.008074
      1.44074      2.13040     15.15140        -0.000000     -0.002095     -0.000117
     -0.31614      5.17340     15.15140        -0.001814      0.001047     -0.000117
      1.44074      7.46802     15.05210        -0.000000     -0.009801      0.011556
      4.30638      2.50458     15.05210        -0.008488      0.004901      0.011556
      3.19762      5.17339     15.15140         0.001814      0.001047     -0.000117
      8.62025      0.01397      9.87582        -0.011367      0.006563     -0.008752
     -1.42843      2.50255      9.90925         0.001324      0.000764     -0.010482
      5.76296      4.96294      9.87582         0.000000     -0.013126     -0.008752
      2.90567      0.01397      9.87582         0.011367      0.006563     -0.008752
      1.44075      2.53688      9.94872        -0.000000      0.006154      0.000161
      0.03587      4.97016      9.94872         0.005329     -0.003077      0.000161
      1.44074      7.47210      9.90925         0.000000     -0.001529     -0.010482
      4.30991      2.50255      9.90925        -0.001324      0.000764     -0.010482
      2.84559      4.97015      9.94872        -0.005329     -0.003077      0.000161
      0.01627      1.63289     13.83217        -0.019931     -0.011583     -0.014860
     -1.45922      4.18852     13.83217        -0.019997     -0.011469     -0.014860
     -2.88148      6.65450     13.80607         0.000000     -0.000000     -0.011425
      2.86521      1.63289     13.83217         0.019931     -0.011583     -0.014860
     -0.03475      6.65577     13.83217        -0.000066      0.023052     -0.014860
      5.76296      1.66362     13.85548         0.000000     -0.000000     -0.040264
      4.34070      4.18852     13.83217         0.019997     -0.011469     -0.014860
      2.91623      6.65577     13.83217         0.000066      0.023052     -0.014860
      1.44074      0.82219     11.08590        -0.000000     -0.013734      0.025174
      0.00043      3.32750     11.18615        -0.032692     -0.018875      0.019353
     -1.44908      5.82750     11.08590        -0.011894      0.006867      0.025174
      4.33406      0.83865     11.10187         0.009966      0.005754      0.024743
      2.88105      3.32750     11.18615         0.032692     -0.018875      0.019353
      1.44074      5.82219     11.18615         0.000000      0.037750      0.019353
      7.19186      0.83865     11.10187        -0.009966      0.005754      0.024743
      5.76296      3.31358     11.10187        -0.000000     -0.011508      0.024743
      4.33055      5.82750     11.08590         0.011894      0.006867      0.025174
      1.44073      4.15907     14.58940         0.000000     -0.000000      0.029998
 -----------------------------------------------------------------------------------
    total drift:                               -0.317371      0.177653     -0.006164


--------------------------------------------------------------------------------------------------------



  FREE ENERGIE OF THE ION-ELECTRON SYSTEM (eV)
  ---------------------------------------------------
  free  energy   TOTEN  =      -417.40661076 eV

  energy  without entropy=     -417.40334542  energy(sigma->0) =     -417.40497809
 


--------------------------------------------------------------------------------------------------------


    POTLOK:  cpu time    0.1638: real time    0.1641


--------------------------------------------------------------------------------------------------------


 stress matrix after NEB project (eV)
      0.03642      0.00000      0.00000
      0.00000      0.03642      0.00000
      0.00000      0.00000     -1.31167
  FORCES: max atom, RMS     0.042421    0.021696
  FORCE total and by dimension    0.145540    0.040264
  Stress total and by dimension    1.312680    1.311669
 writing wavefunctions
     LOOP+:  cpu time 1793.3949: real time 1797.3795
    4ORBIT:  cpu time    0.0000: real time    0.0000
 


 total charge     
 
# of ion       s       p       d       tot
------------------------------------------
    1        0.871   1.601   0.000   2.473
    2        0.872   1.596   0.000   2.468
    3        0.871   1.601   0.000   2.473
    4        0.871   1.592   0.000   2.463
    5        0.881   1.556   0.000   2.436
    6        0.881   1.556   0.000   2.436
    7        0.872   1.594   0.000   2.466
    8        0.872   1.594   0.000   2.466
    9        0.881   1.570   0.000   2.451
   10        1.588   3.388   0.000   4.976
   11        1.580   3.378   0.000   4.958
   12        1.588   3.388   0.000   4.976
   13        1.588   3.383   0.000   4.971
   14        1.585   3.365   0.000   4.950
   15        1.585   3.365   0.000   4.950
   16        1.580   3.383   0.000   4.963
   17        1.580   3.383   0.000   4.963
   18        1.586   3.398   0.000   4.984
   19        1.581   3.388   0.000   4.970
   20        1.582   3.385   0.000   4.966
   21        1.581   3.389   0.000   4.970
   22        1.581   3.376   0.000   4.957
   23        1.582   3.382   0.000   4.964
   24        1.582   3.382   0.000   4.964
   25        1.582   3.383   0.000   4.965
   26        1.582   3.383   0.000   4.965
   27        1.582   3.391   0.000   4.974
   28        2.316   6.277   3.866  12.460
   29        2.316   6.277   3.866  12.459
   30        2.300   6.267   3.961  12.528
   31        2.317   6.275   3.944  12.536
   32        2.317   6.275   3.944  12.536
   33        2.303   6.269   3.923  12.494
   34        2.317   6.276   3.959  12.552
   35        2.317   6.276   3.960  12.552
   36        2.304   6.268   3.956  12.527
   37        2.308   6.277   3.888  12.474
   38        2.304   6.268   3.956  12.527
   39        2.306   6.274   3.960  12.540
   40        2.308   6.277   3.949  12.535
   41        2.308   6.277   3.949  12.535
   42        2.306   6.274   3.940  12.520
   43        2.306   6.274   3.940  12.520
   44        2.305   6.271   3.984  12.560
   45        0.347   0.390   9.153   9.890
--------------------------------------------------
tot         75.971 182.195  76.099 334.265
 


 magnetization (x)
 
# of ion       s       p       d       tot
------------------------------------------
    1        0.000  -0.000   0.000  -0.000
    2       -0.000  -0.000   0.000  -0.000
    3        0.000  -0.000   0.000  -0.000
    4        0.000  -0.000   0.000  -0.000
    5       -0.000  -0.000   0.000  -0.000
    6       -0.000  -0.000   0.000  -0.000
    7       -0.000  -0.000   0.000  -0.000
    8       -0.000  -0.000   0.000  -0.000
    9       -0.000  -0.000   0.000  -0.000
   10        0.000  -0.000   0.000   0.000
   11        0.000  -0.000   0.000  -0.000
   12        0.000  -0.000   0.000   0.000
   13        0.000  -0.000   0.000   0.000
   14       -0.000   0.000   0.000   0.000
   15       -0.000   0.000   0.000   0.000
   16        0.000  -0.000   0.000  -0.000
   17        0.000  -0.000   0.000  -0.000
   18       -0.000  -0.000   0.000  -0.000
   19       -0.000  -0.000   0.000  -0.000
   20       -0.000  -0.000   0.000  -0.000
   21       -0.000  -0.000   0.000  -0.000
   22       -0.000  -0.000   0.000  -0.000
   23        0.000   0.000   0.000   0.000
   24        0.000   0.000   0.000   0.000
   25       -0.000  -0.000   0.000  -0.000
   26       -0.000  -0.000   0.000  -0.000
   27        0.000   0.000   0.000   0.000
   28        0.000  -0.000   0.000   0.000
   29        0.000  -0.000   0.000   0.000
   30       -0.000  -0.000  -0.000  -0.000
   31        0.000  -0.000   0.000   0.000
   32        0.000  -0.000   0.000   0.000
   33        0.000  -0.000  -0.000  -0.000
   34        0.000  -0.000   0.000   0.000
   35        0.000  -0.000   0.000   0.000
   36       -0.000  -0.000  -0.000  -0.000
   37        0.000  -0.000   0.000   0.000
   38       -0.000  -0.000  -0.000  -0.000
   39        0.000  -0.000   0.000   0.000
   40        0.000  -0.000   0.000   0.000
   41        0.000  -0.000   0.000   0.000
   42        0.000  -0.000   0.000   0.000
   43        0.000  -0.000   0.000   0.000
   44       -0.000  -0.000  -0.000  -0.000
   45       -0.000  -0.000   0.000   0.000
--------------------------------------------------
tot         -0.000  -0.000   0.000  -0.000
 

 total amount of memory used by VASP MPI-rank0   255019. kBytes
=======================================================================

   base      :      30000. kBytes
   nonl-proj :     132192. kBytes
   fftplans  :       5074. kBytes
   grid      :      44468. kBytes
   one-center:       1399. kBytes
   wavefun   :      41886. kBytes
 
  
  
 General timing and accounting informations for this job:
 ========================================================
  
                  Total CPU time used (sec):     1821.178
                            User time (sec):     1809.006
                          System time (sec):       12.172
                         Elapsed time (sec):     1826.727
  
                   Maximum memory used (kb):      319480.
                   Average memory used (kb):           0.
  
                          Minor page faults:       393427
                          Major page faults:           16
                 Voluntary context switches:         2199
