unknown system                          
           1
     8.644442    0.000000    0.000000
    -4.322221    7.486313    0.000000
     0.000000    0.000000   25.000000
   C    O    Mo   Ag
   9  18  17   1
Direct configuration=     1
   0.99884800  0.00115200  0.49819400
   0.99784200  0.33225400  0.49942300
   0.99884800  0.66436300  0.49819400
   0.33563700  0.00115200  0.49819400
   0.32749200  0.32165000  0.49849300
   0.32749200  0.67250800  0.49849300
   0.66774600  0.00215800  0.49942300
   0.66774600  0.33225400  0.49942300
   0.67835000  0.67250800  0.49849300
   0.00036200  0.99963800  0.60152200
   0.00244400  0.33455500  0.60208400
   0.00036300  0.66739200  0.60152200
   0.33260800  0.99963700  0.60152200
   0.30895300  0.28457200  0.60605600
   0.30895300  0.69104800  0.60605600
   0.66544500  0.99755600  0.60208400
   0.66544500  0.33455500  0.60208400
   0.71542800  0.69104700  0.60605600
   0.99813400  0.00186600  0.39503300
   0.00189900  0.33428300  0.39637000
   0.99813400  0.66293500  0.39503300
   0.33706500  0.00186600  0.39503300
   0.33610200  0.33886900  0.39794900
   0.33610000  0.66390000  0.39794900
   0.66571700  0.99810100  0.39637000
   0.66571700  0.33428300  0.39637000
   0.66113100  0.66389800  0.39794900
   0.11094100  0.21811700  0.55328700
   0.11094100  0.55949000  0.55328700
   0.11111100  0.88888900  0.55224300
   0.44051000  0.21811700  0.55328700
   0.44051000  0.88905900  0.55328700
   0.77777800  0.22222200  0.55421900
   0.78188300  0.55949000  0.55328700
   0.78188300  0.88905900  0.55328700
   0.22158000  0.10982600  0.44343600
   0.22228900  0.44447800  0.44744600
   0.22157900  0.77842100  0.44343600
   0.55738200  0.11202400  0.44407500
   0.55552200  0.44447800  0.44744600
   0.55552200  0.77771100  0.44744600
   0.88797600  0.11202400  0.44407500
   0.88797600  0.44261800  0.44407500
   0.89017400  0.77842000  0.44343600
   0.44444400  0.55555600  0.58357600
